 VARIABLES = "Q1/bohr", "Q3/bohr", "w"   
 ZONE I=70, J=70, F=point
 -0.97531064496690778      -0.97262476494151362      -3.82078676975637409E-008
 -0.97531064496690778      -0.94209606589714401       1.16063876548131405E-007
 -0.97531064496690778      -0.91202208440531585       2.73310364866544980E-008
 -0.97531064496690778      -0.88232853715729120      -3.31516548702696089E-008
 -0.97531064496690778      -0.85294225171344695       5.60870623438566557E-008
 -0.97531064496690778      -0.82380678620885295       1.09674463122484556E-007
 -0.97531064496690778      -0.79487873279034271      -4.34072831059186316E-008
 -0.97531064496690778      -0.76612428677815270       3.00126654746371248E-007
 -0.97531064496690778      -0.73751677003709659       3.46636938085351218E-007
 -0.97531064496690778      -0.70903486726666931       4.03123278328971985E-007
 -0.97531064496690778      -0.68066135225151037       4.97268669515828713E-007
 -0.97531064496690778      -0.65238215211081962       4.06648864740139467E-007
 -0.97531064496690778      -0.62418564907375307       7.34974238199904425E-007
 -0.97531064496690778      -0.59606215253446604       7.59223230548896046E-007
 -0.97531064496690778      -0.56800349541816741       7.66345831591564734E-007
 -0.97531064496690778      -0.54000272273654126       1.22543042031443533E-006
 -0.97531064496690778      -0.51205384942218735       1.28488740646964846E-006
 -0.97531064496690778      -0.48415167079919169       1.49248418112470994E-006
 -0.97531064496690778      -0.45629161340458113       1.59514466433831915E-006
 -0.97531064496690778      -0.42846961696620961       1.88083964048273579E-006
 -0.97531064496690778      -0.40068204057500301       2.06877189481124951E-006
 -0.97531064496690778      -0.37292558772797563       2.51006643434935187E-006
 -0.97531064496690778      -0.34519724613837155       2.52292655341863978E-006
 -0.97531064496690778      -0.31749423912874575       2.57954979462112760E-006
 -0.97531064496690778      -0.28981398612298037       2.67096343260355274E-006
 -0.97531064496690778      -0.26215407029126964       2.82760686035106312E-006
 -0.97531064496690778      -0.23451221181828233       2.81038509799808503E-006
 -0.97531064496690778      -0.20688624558847907       2.76842939287217324E-006
 -0.97531064496690778      -0.17927410233543425       2.64836269295702198E-006
 -0.97531064496690778      -0.15167379249988833       2.26059037170310121E-006
 -0.97531064496690778      -0.12408339219620076       2.17138502754344499E-006
 -0.97531064496690778      -9.65010308079407436E-002  1.53050517787887655E-006
 -0.97531064496690778      -6.89248798273877361E-002  1.20623276166361403E-006
 -0.97531064496690778      -4.13531426260387580E-002  6.91175104866031420E-007
 -0.97531064496690778      -1.37840448976885785E-002  1.62236635844799664E-007
 -0.97531064496690778       1.37841744446958250E-002 -4.13359145064177687E-007
 -0.97531064496690778       4.13532721102009629E-002 -8.10818344297916078E-007
 -0.97531064496690778       6.89250091855936470E-002 -1.35656225327318468E-006
 -0.97531064496690778       9.65011599765394495E-002 -1.73258890379625292E-006
 -0.97531064496690778       0.12408352111071853      -2.06547914365115425E-006
 -0.97531064496690778       0.15167392109472305      -2.29233975697161060E-006
 -0.97531064496690778       0.17927423054352498      -2.66113819804028710E-006
 -0.97531064496690778       0.20688637334093704      -2.75494597743353253E-006
 -0.97531064496690778       0.23451233904397376      -2.84707232898328054E-006
 -0.97531064496690778       0.26215419691633318      -2.90428954337791027E-006
 -0.97531064496690778       0.28981411207026769      -2.81941380703855679E-006
 -0.97531064496690778       0.31749436431715267      -2.83407147073697558E-006
 -0.97531064496690778       0.34519737048203791      -2.58834603662385584E-006
 -0.97531064496690778       0.37292571113532280      -2.37607006961401774E-006
 -0.97531064496690778       0.40068216294754977      -2.20091025219938509E-006
 -0.97531064496690778       0.42846973819712325      -1.99836779611493291E-006
 -0.97531064496690778       0.45629173337689466      -1.77209184534621699E-006
 -0.97531064496690778       0.48415178938358033      -1.47658679091183427E-006
 -0.97531064496690778       0.51205396647419599      -1.27846119944434320E-006
 -0.97531064496690778       0.54000283809313010      -9.40136195003618433E-007
 -0.97531064496690778       0.56800360889336476      -9.90726403923522834E-007
 -0.97531064496690778       0.59606226391387518      -8.26516469000156987E-007
 -0.97531064496690778       0.62418575810760057      -6.69916216370596811E-007
 -0.97531064496690778       0.65238225850509945      -4.31659469438565465E-007
 -0.97531064496690778       0.68066145565660463      -3.95928175805718197E-007
 -0.97531064496690778       0.70903496726264881      -2.96694874468356165E-007
 -0.97531064496690778       0.73751686611450729      -1.51417909686709701E-007
 -0.97531064496690778       0.76612437831264979      -1.71977439748600363E-008
 -0.97531064496690778       0.79487881900860180      -1.40474144141790864E-007
 -0.97531064496690778       0.82380686614202325      -3.29061640311457618E-008
 -0.97531064496690778       0.85294232413201765      -1.08260700221000706E-007
 -0.97531064496690778       0.88232860047733352      -1.89661421301605402E-008
 -0.97531064496690778       0.91202213654836395      -1.25423609080004072E-007
 -0.97531064496690778       0.94209610406969357      -5.03835669541113422E-008
 -0.97531064496690778       0.97262478525548102      -3.58117031353939819E-009
 -0.94725093427895646      -0.97262476494151362       1.42173284209187373E-008
 -0.94725093427895646      -0.94209606589714401       2.92510634302655215E-008
 -0.94725093427895646      -0.91202208440531585      -2.42012832613390990E-008
 -0.94725093427895646      -0.88232853715729120       8.42080220715331326E-008
 -0.94725093427895646      -0.85294225171344695       2.59959795879457849E-007
 -0.94725093427895646      -0.82380678620885295       2.05350150423733510E-007
 -0.94725093427895646      -0.79487873279034271       1.94932914202265534E-007
 -0.94725093427895646      -0.76612428677815270       4.25564204199809630E-007
 -0.94725093427895646      -0.73751677003709659       6.25283510706248738E-007
 -0.94725093427895646      -0.70903486726666931       7.35499331433674513E-007
 -0.94725093427895646      -0.68066135225151037       9.23593322043871073E-007
 -0.94725093427895646      -0.65238215211081962       1.21640925735500858E-006
 -0.94725093427895646      -0.62418564907375307       1.43531571489970959E-006
 -0.94725093427895646      -0.59606215253446604       1.69435919444801672E-006
 -0.94725093427895646      -0.56800349541816741       2.05752608317521518E-006
 -0.94725093427895646      -0.54000272273654126       2.42866778543677938E-006
 -0.94725093427895646      -0.51205384942218735       3.01144421756380575E-006
 -0.94725093427895646      -0.48415167079919169       3.61670442582228041E-006
 -0.94725093427895646      -0.45629161340458113       4.06207181850828381E-006
 -0.94725093427895646      -0.42846961696620961       4.91184507377858554E-006
 -0.94725093427895646      -0.40068204057500301       5.35610949045549680E-006
 -0.94725093427895646      -0.37292558772797563       5.84950451014227794E-006
 -0.94725093427895646      -0.34519724613837155       6.37333503021412299E-006
 -0.94725093427895646      -0.31749423912874575       6.55733336957142210E-006
 -0.94725093427895646      -0.28981398612298037       7.01002742160818073E-006
 -0.94725093427895646      -0.26215407029126964       7.16914542017504668E-006
 -0.94725093427895646      -0.23451221181828233       6.86790238030945214E-006
 -0.94725093427895646      -0.20688624558847907       6.86224720898320902E-006
 -0.94725093427895646      -0.17927410233543425       6.42451183538201007E-006
 -0.94725093427895646      -0.15167379249988833       5.89258964534780840E-006
 -0.94725093427895646      -0.12408339219620076       4.95753899804090129E-006
 -0.94725093427895646      -9.65010308079407436E-002  4.10819279326153954E-006
 -0.94725093427895646      -6.89248798273877361E-002  2.86925900522599776E-006
 -0.94725093427895646      -4.13531426260387580E-002  1.75326081189264043E-006
 -0.94725093427895646      -1.37840448976885785E-002  7.86198314795264210E-007
 -0.94725093427895646       1.37841744446958250E-002 -4.64852057029524849E-007
 -0.94725093427895646       4.13532721102009629E-002 -1.95076032571970991E-006
 -0.94725093427895646       6.89250091855936470E-002 -2.96366152662553222E-006
 -0.94725093427895646       9.65011599765394495E-002 -4.06886441524463190E-006
 -0.94725093427895646       0.12408352111071853      -5.13484103914424447E-006
 -0.94725093427895646       0.15167392109472305      -5.87599300310868224E-006
 -0.94725093427895646       0.17927423054352498      -6.36752663138471576E-006
 -0.94725093427895646       0.20688637334093704      -6.79462839833978305E-006
 -0.94725093427895646       0.23451233904397376      -7.07311082855226292E-006
 -0.94725093427895646       0.26215419691633318      -6.90308759896139101E-006
 -0.94725093427895646       0.28981411207026769      -6.78211014478863277E-006
 -0.94725093427895646       0.31749436431715267      -6.59421843564659400E-006
 -0.94725093427895646       0.34519737048203791      -6.29859026211227821E-006
 -0.94725093427895646       0.37292571113532280      -5.91092018079458759E-006
 -0.94725093427895646       0.40068216294754977      -5.36978924586472458E-006
 -0.94725093427895646       0.42846973819712325      -4.73418499781424348E-006
 -0.94725093427895646       0.45629173337689466      -4.03290010902482255E-006
 -0.94725093427895646       0.48415178938358033      -3.65571458409665997E-006
 -0.94725093427895646       0.51205396647419599      -2.91705838541446647E-006
 -0.94725093427895646       0.54000283809313010      -2.55680408177536518E-006
 -0.94725093427895646       0.56800360889336476      -2.26312785684389535E-006
 -0.94725093427895646       0.59606226391387518      -1.62883828317436008E-006
 -0.94725093427895646       0.62418575810760057      -1.38023750424812351E-006
 -0.94725093427895646       0.65238225850509945      -1.16580580714500751E-006
 -0.94725093427895646       0.68066145565660463      -9.71456483961450944E-007
 -0.94725093427895646       0.70903496726264881      -5.81441774535510720E-007
 -0.94725093427895646       0.73751686611450729      -5.70551311172090388E-007
 -0.94725093427895646       0.76612437831264979      -1.86270275513600788E-007
 -0.94725093427895646       0.79487881900860180      -3.22038563973526378E-007
 -0.94725093427895646       0.82380686614202325      -6.57396694469529840E-008
 -0.94725093427895646       0.85294232413201765      -2.22121790974737366E-007
 -0.94725093427895646       0.88232860047733352      -1.36351844648920536E-007
 -0.94725093427895646       0.91202213654836395       7.86521709449638556E-008
 -0.94725093427895646       0.94209610406969357      -1.25533362809650898E-008
 -0.94725093427895646       0.97262478525548102      -8.50218359084467822E-008
 -0.91917027974641374      -0.97262476494151362       1.46577094035542349E-007
 -0.91917027974641374      -0.94209606589714401       1.69737715449944152E-008
 -0.91917027974641374      -0.91202208440531585       2.11891286478815820E-007
 -0.91917027974641374      -0.88232853715729120       2.20620641372059112E-007
 -0.91917027974641374      -0.85294225171344695       2.70619648401594273E-007
 -0.91917027974641374      -0.82380678620885295       4.42933978929787048E-007
 -0.91917027974641374      -0.79487873279034271       3.19388443568893764E-007
 -0.91917027974641374      -0.76612428677815270       5.85778410172231866E-007
 -0.91917027974641374      -0.73751677003709659       9.67854658369424669E-007
 -0.91917027974641374      -0.70903486726666931       1.22672320262067984E-006
 -0.91917027974641374      -0.68066135225151037       1.46735848865296573E-006
 -0.91917027974641374      -0.65238215211081962       1.95204212094950701E-006
 -0.91917027974641374      -0.62418564907375307       2.57701778263768789E-006
 -0.91917027974641374      -0.59606215253446604       3.18253042156102862E-006
 -0.91917027974641374      -0.56800349541816741       3.76621336073862947E-006
 -0.91917027974641374      -0.54000272273654126       4.70057170760834955E-006
 -0.91917027974641374      -0.51205384942218735       5.62253234314945903E-006
 -0.91917027974641374      -0.48415167079919169       6.53658481565476652E-006
 -0.91917027974641374      -0.45629161340458113       7.64559695922562818E-006
 -0.91917027974641374      -0.42846961696620961       8.76259602233799234E-006
 -0.91917027974641374      -0.40068204057500301       9.80676845793055473E-006
 -0.91917027974641374      -0.37292558772797563       1.07612289729577148E-005
 -0.91917027974641374      -0.34519724613837155       1.15044495909324257E-005
 -0.91917027974641374      -0.31749423912874575       1.21133238586203488E-005
 -0.91917027974641374      -0.28981398612298037       1.27694009841203120E-005
 -0.91917027974641374      -0.26215407029126964       1.30972531916518860E-005
 -0.91917027974641374      -0.23451221181828233       1.27738245322051379E-005
 -0.91917027974641374      -0.20688624558847907       1.24751408691814490E-005
 -0.91917027974641374      -0.17927410233543425       1.18876301260154394E-005
 -0.91917027974641374      -0.15167379249988833       1.06557700763886500E-005
 -0.91917027974641374      -0.12408339219620076       9.26886680842358527E-006
 -0.91917027974641374      -9.65010308079407436E-002  7.67130862764183476E-006
 -0.91917027974641374      -6.89248798273877361E-002  5.48304464857934515E-006
 -0.91917027974641374      -4.13531426260387580E-002  3.50576304218482041E-006
 -0.91917027974641374      -1.37840448976885785E-002  1.06006601761755043E-006
 -0.91917027974641374       1.37841744446958250E-002 -1.00513719937294952E-006
 -0.91917027974641374       4.13532721102009629E-002 -3.36202862536619281E-006
 -0.91917027974641374       6.89250091855936470E-002 -5.65248816526898869E-006
 -0.91917027974641374       9.65011599765394495E-002 -7.68264665332086166E-006
 -0.91917027974641374       0.12408352111071853      -9.30007327393411814E-006
 -0.91917027974641374       0.15167392109472305      -1.05545175588558809E-005
 -0.91917027974641374       0.17927423054352498      -1.17222587817509928E-005
 -0.91917027974641374       0.20688637334093704      -1.26120726251703214E-005
 -0.91917027974641374       0.23451233904397376      -1.29911877477185897E-005
 -0.91917027974641374       0.26215419691633318      -1.28981420542536522E-005
 -0.91917027974641374       0.28981411207026769      -1.26014156234450199E-005
 -0.91917027974641374       0.31749436431715267      -1.21334581092027047E-005
 -0.91917027974641374       0.34519737048203791      -1.15958757565694306E-005
 -0.91917027974641374       0.37292571113532280      -1.05687579062076958E-005
 -0.91917027974641374       0.40068216294754977      -9.84125672665346480E-006
 -0.91917027974641374       0.42846973819712325      -8.74398345853452816E-006
 -0.91917027974641374       0.45629173337689466      -7.65537746729471083E-006
 -0.91917027974641374       0.48415178938358033      -6.62297967324213899E-006
 -0.91917027974641374       0.51205396647419599      -5.46183570418497493E-006
 -0.91917027974641374       0.54000283809313010      -4.57912613510486645E-006
 -0.91917027974641374       0.56800360889336476      -3.72819757030893453E-006
 -0.91917027974641374       0.59606226391387518      -2.98397278392271469E-006
 -0.91917027974641374       0.62418575810760057      -2.54193357796840928E-006
 -0.91917027974641374       0.65238225850509945      -2.06378309473510974E-006
 -0.91917027974641374       0.68066145565660463      -1.52305832678799972E-006
 -0.91917027974641374       0.70903496726264881      -9.69445576404172076E-007
 -0.91917027974641374       0.73751686611450729      -6.81500398682858397E-007
 -0.91917027974641374       0.76612437831264979      -6.09449067720091029E-007
 -0.91917027974641374       0.79487881900860180      -5.20223740031040525E-007
 -0.91917027974641374       0.82380686614202325      -2.37307544283215270E-007
 -0.91917027974641374       0.85294232413201765      -2.42636559967378243E-007
 -0.91917027974641374       0.88232860047733352      -1.31142321484455277E-007
 -0.91917027974641374       0.91202213654836395      -3.66600707909921899E-008
 -0.91917027974641374       0.94209610406969357      -1.07610310714572276E-007
 -0.91917027974641374       0.97262478525548102       6.72445813669390201E-008
 -0.89110436769079360      -0.97262476494151362       3.43299957945613262E-008
 -0.89110436769079360      -0.94209606589714401       2.08352134064647296E-007
 -0.89110436769079360      -0.91202208440531585       7.69552023506861735E-009
 -0.89110436769079360      -0.88232853715729120       1.45458313973777030E-007
 -0.89110436769079360      -0.85294225171344695       4.18581964655859210E-007
 -0.89110436769079360      -0.82380678620885295       6.08211769512198047E-007
 -0.89110436769079360      -0.79487873279034271       5.29329008589129458E-007
 -0.89110436769079360      -0.76612428677815270       1.10725175616513700E-006
 -0.89110436769079360      -0.73751677003709659       1.41833562256696328E-006
 -0.89110436769079360      -0.70903486726666931       1.70523052586473178E-006
 -0.89110436769079360      -0.68066135225151037       2.27003526391445252E-006
 -0.89110436769079360      -0.65238215211081962       3.19020137989738354E-006
 -0.89110436769079360      -0.62418564907375307       4.13491440043383644E-006
 -0.89110436769079360      -0.59606215253446604       5.09900704868523182E-006
 -0.89110436769079360      -0.56800349541816741       6.20634154198451656E-006
 -0.89110436769079360      -0.54000272273654126       7.62496308126258536E-006
 -0.89110436769079360      -0.51205384942218735       9.31871468980567281E-006
 -0.89110436769079360      -0.48415167079919169       1.09975428534815794E-005
 -0.89110436769079360      -0.45629161340458113       1.27812332603837547E-005
 -0.89110436769079360      -0.42846961696620961       1.45042664177525700E-005
 -0.89110436769079360      -0.40068204057500301       1.64450118503610271E-005
 -0.89110436769079360      -0.37292558772797563       1.81933685007117294E-005
 -0.89110436769079360      -0.34519724613837155       1.96035125716223824E-005
 -0.89110436769079360      -0.31749423912874575       2.08967035439337412E-005
 -0.89110436769079360      -0.28981398612298037       2.17001038830083752E-005
 -0.89110436769079360      -0.26215407029126964       2.22158097702348514E-005
 -0.89110436769079360      -0.23451221181828233       2.21957015258436011E-005
 -0.89110436769079360      -0.20688624558847907       2.14777003784475033E-005
 -0.89110436769079360      -0.17927410233543425       2.02986002087792244E-005
 -0.89110436769079360      -0.15167379249988833       1.84702288976662913E-005
 -0.89110436769079360      -0.12408339219620076       1.61886746386489189E-005
 -0.89110436769079360      -9.65010308079407436E-002  1.29841662268769639E-005
 -0.89110436769079360      -6.89248798273877361E-002  9.73751456026189394E-006
 -0.89110436769079360      -4.13531426260387580E-002  6.04442610542764770E-006
 -0.89110436769079360      -1.37840448976885785E-002  1.86146216188237322E-006
 -0.89110436769079360       1.37841744446958250E-002 -2.00716869549588450E-006
 -0.89110436769079360       4.13532721102009629E-002 -5.83309140064313627E-006
 -0.89110436769079360       6.89250091855936470E-002 -9.74499758256799636E-006
 -0.89110436769079360       9.65011599765394495E-002 -1.31427350279091930E-005
 -0.89110436769079360       0.12408352111071853      -1.60318423595649062E-005
 -0.89110436769079360       0.15167392109472305      -1.85110388742760443E-005
 -0.89110436769079360       0.17927423054352498      -2.03523037189283109E-005
 -0.89110436769079360       0.20688637334093704      -2.16220319788168798E-005
 -0.89110436769079360       0.23451233904397376      -2.20232423579342847E-005
 -0.89110436769079360       0.26215419691633318      -2.22622903548408765E-005
 -0.89110436769079360       0.28981411207026769      -2.16360884954848939E-005
 -0.89110436769079360       0.31749436431715267      -2.08617209336437960E-005
 -0.89110436769079360       0.34519737048203791      -1.94739159013564272E-005
 -0.89110436769079360       0.37292571113532280      -1.79447552268931858E-005
 -0.89110436769079360       0.40068216294754977      -1.64091875398050169E-005
 -0.89110436769079360       0.42846973819712325      -1.44853761251260749E-005
 -0.89110436769079360       0.45629173337689466      -1.25705494128918057E-005
 -0.89110436769079360       0.48415178938358033      -1.07861495688312580E-005
 -0.89110436769079360       0.51205396647419599      -9.15321890184017848E-006
 -0.89110436769079360       0.54000283809313010      -7.65304366797660987E-006
 -0.89110436769079360       0.56800360889336476      -6.27908509474366960E-006
 -0.89110436769079360       0.59606226391387518      -5.09732336953569906E-006
 -0.89110436769079360       0.62418575810760057      -4.12449627349701563E-006
 -0.89110436769079360       0.65238225850509945      -2.94814519409868445E-006
 -0.89110436769079360       0.68066145565660463      -2.25735417921898946E-006
 -0.89110436769079360       0.70903496726264881      -1.65596927407004649E-006
 -0.89110436769079360       0.73751686611450729      -1.40774990046619280E-006
 -0.89110436769079360       0.76612437831264979      -8.46185180385025041E-007
 -0.89110436769079360       0.79487881900860180      -8.14919006200462564E-007
 -0.89110436769079360       0.82380686614202325      -6.27589258373327368E-007
 -0.89110436769079360       0.85294232413201765      -3.85731616095748485E-007
 -0.89110436769079360       0.88232860047733352      -2.22810622910163240E-007
 -0.89110436769079360       0.91202213654836395      -5.48001897645129578E-009
 -0.89110436769079360       0.94209610406969357       7.11264054688001234E-008
 -0.89110436769079360       0.97262478525548102      -3.76484526554270065E-008
 -0.86305744749771562      -0.97262476494151362      -9.21422207265182339E-008
 -0.86305744749771562      -0.94209606589714401       2.53132504556649428E-007
 -0.86305744749771562      -0.91202208440531585       7.70776991561769444E-008
 -0.86305744749771562      -0.88232853715729120       4.00125280859914467E-007
 -0.86305744749771562      -0.85294225171344695       5.01805753068051915E-007
 -0.86305744749771562      -0.82380678620885295       7.18788101601119311E-007
 -0.86305744749771562      -0.79487873279034271       8.93605967547518445E-007
 -0.86305744749771562      -0.76612428677815270       1.40276709966120611E-006
 -0.86305744749771562      -0.73751677003709659       1.91550759757412406E-006
 -0.86305744749771562      -0.70903486726666931       2.81999291161903445E-006
 -0.86305744749771562      -0.68066135225151037       3.76305358271719041E-006
 -0.86305744749771562      -0.65238215211081962       4.90698520258771814E-006
 -0.86305744749771562      -0.62418564907375307       6.29923517139671675E-006
 -0.86305744749771562      -0.59606215253446604       7.83775844098922666E-006
 -0.86305744749771562      -0.56800349541816741       9.89188886711336738E-006
 -0.86305744749771562      -0.54000272273654126       1.22898841386419058E-005
 -0.86305744749771562      -0.51205384942218735       1.47547183970341567E-005
 -0.86305744749771562      -0.48415167079919169       1.75686973353614774E-005
 -0.86305744749771562      -0.45629161340458113       2.03789875858496064E-005
 -0.86305744749771562      -0.42846961696620961       2.35953763528956256E-005
 -0.86305744749771562      -0.40068204057500301       2.65445481429886798E-005
 -0.86305744749771562      -0.37292558772797563       2.94911355613156715E-005
 -0.86305744749771562      -0.34519724613837155       3.22343396801672032E-005
 -0.86305744749771562      -0.31749423912874575       3.44677900193591496E-005
 -0.86305744749771562      -0.28981398612298037       3.59445411810670144E-005
 -0.86305744749771562      -0.26215407029126964       3.66190913179168068E-005
 -0.86305744749771562      -0.23451221181828233       3.65798576022251866E-005
 -0.86305744749771562      -0.20688624558847907       3.57563127014343411E-005
 -0.86305744749771562      -0.17927410233543425       3.37924805847653674E-005
 -0.86305744749771562      -0.15167379249988833       3.06683069081751486E-005
 -0.86305744749771562      -0.12408339219620076       2.67434460981320446E-005
 -0.86305744749771562      -9.65010308079407436E-002  2.18478723442042638E-005
 -0.86305744749771562      -6.89248798273877361E-002  1.62884100798132198E-005
 -0.86305744749771562      -4.13531426260387580E-002  9.84568349180166074E-006
 -0.86305744749771562      -1.37840448976885785E-002  3.25234827252121533E-006
 -0.86305744749771562       1.37841744446958250E-002 -3.43643213796141696E-006
 -0.86305744749771562       4.13532721102009629E-002 -1.00387633842109651E-005
 -0.86305744749771562       6.89250091855936470E-002 -1.61344681024225585E-005
 -0.86305744749771562       9.65011599765394495E-002 -2.16746486811238437E-005
 -0.86305744749771562       0.12408352111071853      -2.66015070055728857E-005
 -0.86305744749771562       0.15167392109472305      -3.06414832184702900E-005
 -0.86305744749771562       0.17927423054352498      -3.37234468745754184E-005
 -0.86305744749771562       0.20688637334093704      -3.58394452791333424E-005
 -0.86305744749771562       0.23451233904397376      -3.65844391788679898E-005
 -0.86305744749771562       0.26215419691633318      -3.66693685428965628E-005
 -0.86305744749771562       0.28981411207026769      -3.58693541922581153E-005
 -0.86305744749771562       0.31749436431715267      -3.42147018360567545E-005
 -0.86305744749771562       0.34519737048203791      -3.20590295034699381E-005
 -0.86305744749771562       0.37292571113532280      -2.96323423280201114E-005
 -0.86305744749771562       0.40068216294754977      -2.67790863961694262E-005
 -0.86305744749771562       0.42846973819712325      -2.34519193380061803E-005
 -0.86305744749771562       0.45629173337689466      -2.05042244227118245E-005
 -0.86305744749771562       0.48415178938358033      -1.76996507688539298E-005
 -0.86305744749771562       0.51205396647419599      -1.46947153330566764E-005
 -0.86305744749771562       0.54000283809313010      -1.22846729593618484E-005
 -0.86305744749771562       0.56800360889336476      -1.00064352361278884E-005
 -0.86305744749771562       0.59606226391387518      -7.98926451900561121E-006
 -0.86305744749771562       0.62418575810760057      -6.30471308622125199E-006
 -0.86305744749771562       0.65238225850509945      -4.67848079406457840E-006
 -0.86305744749771562       0.68066145565660463      -3.59233222051544611E-006
 -0.86305744749771562       0.70903496726264881      -2.60353273414429851E-006
 -0.86305744749771562       0.73751686611450729      -1.94715220950934837E-006
 -0.86305744749771562       0.76612437831264979      -1.53222398556163959E-006
 -0.86305744749771562       0.79487881900860180      -1.05141280363314841E-006
 -0.86305744749771562       0.82380686614202325      -7.17254045787891045E-007
 -0.86305744749771562       0.85294232413201765      -5.06626488387633296E-007
 -0.86305744749771562       0.88232860047733352      -4.32621440965844672E-007
 -0.86305744749771562       0.91202213654836395      -8.91339208859410188E-008
 -0.86305744749771562       0.94209610406969357      -9.44871462381355223E-008
 -0.86305744749771562       0.97262478525548102      -1.98681186351538251E-007
 -0.83503037963158100      -0.97262476494151362      -7.58330592775527688E-008
 -0.83503037963158100      -0.94209606589714401       4.27540030965872178E-008
 -0.83503037963158100      -0.91202208440531585       1.23643191298141114E-007
 -0.83503037963158100      -0.88232853715729120       2.90879326196486827E-007
 -0.83503037963158100      -0.85294225171344695       5.79748729496895767E-007
 -0.83503037963158100      -0.82380678620885295       1.16697258130042328E-006
 -0.83503037963158100      -0.79487873279034271       1.57470963582450658E-006
 -0.83503037963158100      -0.76612428677815270       2.23118497102179175E-006
 -0.83503037963158100      -0.73751677003709659       3.03353116240150972E-006
 -0.83503037963158100      -0.70903486726666931       3.95413226530300699E-006
 -0.83503037963158100      -0.68066135225151037       5.54357562561406304E-006
 -0.83503037963158100      -0.65238215211081962       7.16836829981527275E-006
 -0.83503037963158100      -0.62418564907375307       9.64152626758125225E-006
 -0.83503037963158100      -0.59606215253446604       1.22183458112839718E-005
 -0.83503037963158100      -0.56800349541816741       1.52499713659942599E-005
 -0.83503037963158100      -0.54000272273654126       1.88980218925101548E-005
 -0.83503037963158100      -0.51205384942218735       2.29847938175455363E-005
 -0.83503037963158100      -0.48415167079919169       2.75467805228818584E-005
 -0.83503037963158100      -0.45629161340458113       3.24575031081614592E-005
 -0.83503037963158100      -0.42846961696620961       3.75383322072918459E-005
 -0.83503037963158100      -0.40068204057500301       4.24490249555453339E-005
 -0.83503037963158100      -0.37292558772797563       4.70955244877941268E-005
 -0.83503037963158100      -0.34519724613837155       5.16644339462418606E-005
 -0.83503037963158100      -0.31749423912874575       5.53713702240719760E-005
 -0.83503037963158100      -0.28981398612298037       5.80254075365601297E-005
 -0.83503037963158100      -0.26215407029126964       5.94441548438104917E-005
 -0.83503037963158100      -0.23451221181828233       5.94688956177806362E-005
 -0.83503037963158100      -0.20688624558847907       5.80072554143009039E-005