 VARIABLES = "Q1/bohr", "Q3/bohr", "w"   
 ZONE I=70, J=70, F=point
 -0.97531064496690778      -0.97262476494151362      -1.78576017662594890E-007
 -0.97531064496690778      -0.94209606589714401       4.45095569511260407E-007
 -0.97531064496690778      -0.91202208440531585       4.28593925350271297E-008
 -0.97531064496690778      -0.88232853715729120      -2.51095450800885723E-007
 -0.97531064496690778      -0.85294225171344695       6.92437106987156532E-008
 -0.97531064496690778      -0.82380678620885295       2.20951411738658112E-007
 -0.97531064496690778      -0.79487873279034271      -5.18940411093815962E-007
 -0.97531064496690778      -0.76612428677815270       7.96098668157171967E-007
 -0.97531064496690778      -0.73751677003709659       8.28511120931633207E-007
 -0.97531064496690778      -0.70903486726666931       8.61308712542480201E-007
 -0.97531064496690778      -0.68066135225151037       1.00544695318327411E-006
 -0.97531064496690778      -0.65238215211081962       3.22915926432658633E-007
 -0.97531064496690778      -0.62418564907375307       1.34560683413191765E-006
 -0.97531064496690778      -0.59606215253446604       1.03920186838822626E-006
 -0.97531064496690778      -0.56800349541816741       6.11537027546421640E-007
 -0.97531064496690778      -0.54000272273654126       2.04038581844045924E-006
 -0.97531064496690778      -0.51205384942218735       1.76390480462749452E-006
 -0.97531064496690778      -0.48415167079919169       2.09978980013307105E-006
 -0.97531064496690778      -0.45629161340458113       2.00973420302482408E-006
 -0.97531064496690778      -0.42846961696620961       2.73174649601874159E-006
 -0.97531064496690778      -0.40068204057500301       3.12055026065980459E-006
 -0.97531064496690778      -0.37292558772797563       4.68662335237159860E-006
 -0.97531064496690778      -0.34519724613837155       4.60594568990833638E-006
 -0.97531064496690778      -0.31749423912874575       4.89799090387647336E-006
 -0.97531064496690778      -0.28981398612298037       5.55915755479594589E-006
 -0.97531064496690778      -0.26215407029126964       6.74558947965255832E-006
 -0.97531064496690778      -0.23451221181828233       7.47333603365440647E-006
 -0.97531064496690778      -0.20688624558847907       8.37764548005764130E-006
 -0.97531064496690778      -0.17927410233543425       9.23086965865032124E-006
 -0.97531064496690778      -0.15167379249988833       9.22018824412021215E-006
 -0.97531064496690778      -0.12408339219620076       1.06916821982898374E-005
 -0.97531064496690778      -9.65010308079407436E-002  1.00318726272087813E-005
 -0.97531064496690778      -6.89248798273877361E-002  1.08293605561126618E-005
 -0.97531064496690778      -4.13531426260387580E-002  1.08884237589038568E-005
 -0.97531064496690778      -1.37840448976885785E-002  1.08802306055923585E-005
 -0.97531064496690778       1.37841744446958250E-002  1.05929896074216481E-005
 -0.97531064496690778       4.13532721102009629E-002  1.08980150612186615E-005
 -0.97531064496690778       6.89250091855936470E-002  1.03582957018893761E-005
 -0.97531064496690778       9.65011599765394495E-002  1.02514352036201752E-005
 -0.97531064496690778       0.12408352111071853       1.00009503123867178E-005
 -0.97531064496690778       0.15167392109472305       9.84063603008667678E-006
 -0.97531064496690778       0.17927423054352498       8.71490191087360324E-006
 -0.97531064496690778       0.20688637334093704       8.37522562216242774E-006
 -0.97531064496690778       0.23451233904397376       7.69095457208302754E-006
 -0.97531064496690778       0.26215419691633318       6.83206485960657712E-006
 -0.97531064496690778       0.28981411207026769       6.28985204457879944E-006
 -0.97531064496690778       0.31749436431715267       5.09956500172569277E-006
 -0.97531064496690778       0.34519737048203791       4.82632465146026290E-006
 -0.97531064496690778       0.37292571113532280       4.29275761891126261E-006
 -0.97531064496690778       0.40068216294754977       3.53813719793389596E-006
 -0.97531064496690778       0.42846973819712325       2.88386671004778852E-006
 -0.97531064496690778       0.45629173337689466       2.35903720015939174E-006
 -0.97531064496690778       0.48415178938358033       2.19192363921459963E-006
 -0.97531064496690778       0.51205396647419599       1.71178627446407732E-006
 -0.97531064496690778       0.54000283809313010       1.93661912439344060E-006
 -0.97531064496690778       0.56800360889336476       6.57752431153645848E-007
 -0.97531064496690778       0.59606226391387518       4.14244382641164391E-007
 -0.97531064496690778       0.62418575810760057       2.71878973614055533E-007
 -0.97531064496690778       0.65238225850509945       5.99071348469614703E-007
 -0.97531064496690778       0.68066145565660463       1.93077963975754005E-007
 -0.97531064496690778       0.70903496726264881       1.58876174756543169E-007
 -0.97531064496690778       0.73751686611450729       4.09919435262142743E-007
 -0.97531064496690778       0.76612437831264979       6.92682840501134720E-007
 -0.97531064496690778       0.79487881900860180      -4.02474229791451312E-008
 -0.97531064496690778       0.82380686614202325       2.48801801714634259E-007
 -0.97531064496690778       0.85294232413201765      -1.88190307283303796E-007
 -0.97531064496690778       0.88232860047733352       9.82883954409018546E-008
 -0.97531064496690778       0.91202213654836395      -4.13064477844146426E-007
 -0.97531064496690778       0.94209610406969357      -1.45327814817762747E-007
 -0.97531064496690778       0.97262478525548102       1.34918700361741410E-008
 -0.94725093427895646      -0.97262476494151362       1.77580539886942575E-008
 -0.94725093427895646      -0.94209606589714401       2.54933615913977863E-008
 -0.94725093427895646      -0.91202208440531585      -2.68140926163112276E-007
 -0.94725093427895646      -0.88232853715729120       9.30310841443736636E-008
 -0.94725093427895646      -0.85294225171344695       7.03297580700451686E-007
 -0.94725093427895646      -0.82380678620885295       3.01028027777453829E-007
 -0.94725093427895646      -0.79487873279034271       2.65711163152074699E-008
 -0.94725093427895646      -0.76612428677815270       6.91881674523541228E-007
 -0.94725093427895646      -0.73751677003709659       1.14108678228776852E-006
 -0.94725093427895646      -0.70903486726666931       1.11337630586813712E-006
 -0.94725093427895646      -0.68066135225151037       1.29830966831828327E-006
 -0.94725093427895646      -0.65238215211081962       1.79733314155220256E-006
 -0.94725093427895646      -0.62418564907375307       1.85436788857772514E-006
 -0.94725093427895646      -0.59606215253446604       1.94818489374697885E-006
 -0.94725093427895646      -0.56800349541816741       2.35596909047559193E-006
 -0.94725093427895646      -0.54000272273654126       2.69263328762782718E-006
 -0.94725093427895646      -0.51205384942218735       3.84486715391109658E-006
 -0.94725093427895646      -0.48415167079919169       5.06281964842369367E-006
 -0.94725093427895646      -0.45629161340458113       5.63924474521617566E-006
 -0.94725093427895646      -0.42846961696620961       8.01427217415231234E-006
 -0.94725093427895646      -0.40068204057500301       8.87038507131883715E-006
 -0.94725093427895646      -0.37292558772797563       1.02068808528594149E-005
 -0.94725093427895646      -0.34519724613837155       1.20397251352728839E-005
 -0.94725093427895646      -0.31749423912874575       1.29076428692277513E-005
 -0.94725093427895646      -0.28981398612298037       1.54508523769937312E-005
 -0.94725093427895646      -0.26215407029126964       1.73804582071278151E-005
 -0.94725093427895646      -0.23451221181828233       1.80473595026431818E-005
 -0.94725093427895646      -0.20688624558847907       2.06487966564220673E-005
 -0.94725093427895646      -0.17927410233543425       2.21234844066123375E-005
 -0.94725093427895646      -0.15167379249988833       2.38488703137738474E-005
 -0.94725093427895646      -0.12408339219620076       2.44521608859831001E-005
 -0.94725093427895646      -9.65010308079407436E-002  2.58758055861702462E-005
 -0.94725093427895646      -6.89248798273877361E-002  2.59853532682308772E-005
 -0.94725093427895646      -4.13531426260387580E-002  2.67695441288396867E-005
 -0.94725093427895646      -1.37840448976885785E-002  2.81592022464313291E-005
 -0.94725093427895646       1.37841744446958250E-002  2.81530647920496785E-005
 -0.94725093427895646       4.13532721102009629E-002  2.67769888396309856E-005
 -0.94725093427895646       6.89250091855936470E-002  2.68363704973586213E-005
 -0.94725093427895646       9.65011599765394495E-002  2.58155640156910809E-005
 -0.94725093427895646       0.12408352111071853       2.41553122516558249E-005
 -0.94725093427895646       0.15167392109472305       2.29790607846007700E-005
 -0.94725093427895646       0.17927423054352498       2.19358287143504106E-005
 -0.94725093427895646       0.20688637334093704       2.02526977207476077E-005
 -0.94725093427895646       0.23451233904397376       1.83256585259192247E-005
 -0.94725093427895646       0.26215419691633318       1.74902070326306465E-005
 -0.94725093427895646       0.28981411207026769       1.57616572268652770E-005
 -0.94725093427895646       0.31749436431715267       1.37507785359407464E-005
 -0.94725093427895646       0.34519737048203791       1.17642870064986193E-005
 -0.94725093427895646       0.37292571113532280       9.87564761145683956E-006
 -0.94725093427895646       0.40068216294754977       8.47808350629581215E-006
 -0.94725093427895646       0.42846973819712325       7.44890299174798801E-006
 -0.94725093427895646       0.45629173337689466       6.77653177123552216E-006
 -0.94725093427895646       0.48415178938358033       4.91568234509659650E-006
 -0.94725093427895646       0.51205396647419599       4.81403255431862258E-006
 -0.94725093427895646       0.54000283809313010       3.41505915130623955E-006
 -0.94725093427895646       0.56800360889336476       2.05651710163361814E-006
 -0.94725093427895646       0.59606226391387518       2.45897367936165216E-006
 -0.94725093427895646       0.62418575810760057       1.56923468255282491E-006
 -0.94725093427895646       0.65238225850509945       8.47224126119435110E-007
 -0.94725093427895646       0.68066145565660463       3.27055484185819542E-007
 -0.94725093427895646       0.70903496726264881       8.84116706384115645E-007
 -0.94725093427895646       0.73751686611450729       7.25885529610392460E-008
 -0.94725093427895646       0.76612437831264979       1.01774130188060956E-006
 -0.94725093427895646       0.79487881900860180      -6.34373912883844931E-008
 -0.94725093427895646       0.82380686614202325       6.28325654633084892E-007
 -0.94725093427895646       0.85294232413201765      -3.12261759668492689E-007
 -0.94725093427895646       0.88232860047733352      -1.59386243171468668E-007
 -0.94725093427895646       0.91202213654836395       5.92577086038179422E-007
 -0.94725093427895646       0.94209610406969357       9.98658466974491783E-008
 -0.94725093427895646       0.97262478525548102      -2.91394851182945655E-007
 -0.91917027974641374      -0.97262476494151362       5.45101355989155146E-007
 -0.91917027974641374      -0.94209606589714401      -9.24103300119340036E-008
 -0.91917027974641374      -0.91202208440531585       6.07863231302307183E-007
 -0.91917027974641374      -0.88232853715729120       4.83548279942040414E-007
 -0.91917027974641374      -0.85294225171344695       4.72729960151741333E-007
 -0.91917027974641374      -0.82380678620885295       8.94931877566979410E-007
 -0.91917027974641374      -0.79487873279034271      -2.80443356842376026E-008
 -0.91917027974641374      -0.76612428677815270       5.56421622083633131E-007
 -0.91917027974641374      -0.73751677003709659       1.47001468272655417E-006
 -0.91917027974641374      -0.70903486726666931       1.68210615995212809E-006
 -0.91917027974641374      -0.68066135225151037       1.60752894148751163E-006
 -0.91917027974641374      -0.65238215211081962       2.32523136198948561E-006
 -0.91917027974641374      -0.62418564907375307       3.38590776996723049E-006
 -0.91917027974641374      -0.59606215253446604       4.11652238281494859E-006
 -0.91917027974641374      -0.56800349541816741       4.51963539963627599E-006
 -0.91917027974641374      -0.54000272273654126       6.19129870320321207E-006
 -0.91917027974641374      -0.51205384942218735       7.66231917231514960E-006
 -0.91917027974641374      -0.48415167079919169       9.03154071810330705E-006
 -0.91917027974641374      -0.45629161340458113       1.12567606132746450E-005
 -0.91917027974641374      -0.42846961696620961       1.36840886346921996E-005
 -0.91917027974641374      -0.40068204057500301       1.61273857766012562E-005
 -0.91917027974641374      -0.37292558772797563       1.86856829032538549E-005
 -0.91917027974641374      -0.34519724613837155       2.10269287429013020E-005
 -0.91917027974641374      -0.31749423912874575       2.36509401886913920E-005
 -0.91917027974641374      -0.28981398612298037       2.74831909603142839E-005
 -0.91917027974641374      -0.26215407029126964       3.10863148735697907E-005
 -0.91917027974641374      -0.23451221181828233       3.32039343158031989E-005
 -0.91917027974641374      -0.20688624558847907       3.67243454120147283E-005
 -0.91917027974641374      -0.17927410233543425       4.03228616449992786E-005
 -0.91917027974641374      -0.15167379249988833       4.24341628027901299E-005
 -0.91917027974641374      -0.12408339219620076       4.49726346410729051E-005
 -0.91917027974641374      -9.65010308079407436E-002  4.75009535409289581E-005
 -0.91917027974641374      -6.89248798273877361E-002  4.81629288432428094E-005
 -0.91917027974641374      -4.13531426260387580E-002  5.00180573360133594E-005
 -0.91917027974641374      -1.37840448976885785E-002  4.98787017400140512E-005
 -0.91917027974641374       1.37841744446958250E-002  5.09605460592919881E-005
 -0.91917027974641374       4.13532721102009629E-002  5.01019935309175645E-005
 -0.91917027974641374       6.89250091855936470E-002  4.84929339729035219E-005
 -0.91917027974641374       9.65011599765394495E-002  4.66782679958161137E-005
 -0.91917027974641374       0.12408352111071853       4.50883621001106643E-005
 -0.91917027974641374       0.15167392109472305       4.33740537217656785E-005
 -0.91917027974641374       0.17927423054352498       4.03111213374701490E-005
 -0.91917027974641374       0.20688637334093704       3.67139479375778652E-005
 -0.91917027974641374       0.23451233904397376       3.36433978713480332E-005
 -0.91917027974641374       0.26215419691633318       3.10852464511211801E-005
 -0.91917027974641374       0.28981411207026769       2.81112282392880572E-005
 -0.91917027974641374       0.31749436431715267       2.48203908315014967E-005
 -0.91917027974641374       0.34519737048203791       2.10431693801600120E-005
 -0.91917027974641374       0.37292571113532280       1.88043253842873765E-005
 -0.91917027974641374       0.40068216294754977       1.50449973759668994E-005
 -0.91917027974641374       0.42846973819712325       1.28075653481117593E-005
 -0.91917027974641374       0.45629173337689466       1.07061287519384681E-005
 -0.91917027974641374       0.48415178938358033       8.70734437675954597E-006
 -0.91917027974641374       0.51205396647419599       7.71432994932693195E-006
 -0.91917027974641374       0.54000283809313010       6.10517418424112991E-006
 -0.91917027974641374       0.56800360889336476       4.96454560388155293E-006
 -0.91917027974641374       0.59606226391387518       3.99417993041960959E-006
 -0.91917027974641374       0.62418575810760057       2.36216993314902963E-006
 -0.91917027974641374       0.65238225850509945       1.45550092905878553E-006
 -0.91917027974641374       0.68066145565660463       1.33626671094879884E-006
 -0.91917027974641374       0.70903496726264881       1.73820192291155645E-006
 -0.91917027974641374       0.73751686611450729       1.42889561590301745E-006
 -0.91917027974641374       0.76612437831264979       5.54469082664477144E-007
 -0.91917027974641374       0.79487881900860180       3.32871973235752866E-008
 -0.91917027974641374       0.82380686614202325       5.51716183201992785E-007
 -0.91917027974641374       0.85294232413201765       3.72134721266292769E-008
 -0.91917027974641374       0.88232860047733352       1.48879857576247874E-007
 -0.91917027974641374       0.91202213654836395       2.88250548062056472E-007
 -0.91917027974641374       0.94209610406969357      -1.95913204230464656E-007
 -0.91917027974641374       0.97262478525548102       3.91694862179237032E-007
 -0.89110436769079360      -0.97262476494151362       3.73467511247885534E-008
 -0.89110436769079360      -0.94209606589714401       6.24714899624934208E-007
 -0.89110436769079360      -0.91202208440531585      -4.00354365545316542E-007
 -0.89110436769079360      -0.88232853715729120      -7.40957126477934915E-008
 -0.89110436769079360      -0.85294225171344695       7.23734918706186809E-007
 -0.89110436769079360      -0.82380678620885295       1.03978468219739266E-006
 -0.89110436769079360      -0.79487873279034271       5.89490568582622006E-008
 -0.89110436769079360      -0.76612428677815270       1.62090655824601827E-006
 -0.89110436769079360      -0.73751677003709659       1.80143988911868518E-006
 -0.89110436769079360      -0.70903486726666931       1.56956182122148140E-006
 -0.89110436769079360      -0.68066135225151037       2.14686927031205949E-006
 -0.89110436769079360      -0.65238215211081962       3.81760889767951023E-006
 -0.89110436769079360      -0.62418564907375307       5.16479673541258106E-006
 -0.89110436769079360      -0.59606215253446604       6.15686908418977642E-006
 -0.89110436769079360      -0.56800349541816741       7.33020528806646778E-006
 -0.89110436769079360      -0.54000272273654126       9.43899398864955777E-006
 -0.89110436769079360      -0.51205384942218735       1.24199477476902835E-005
 -0.89110436769079360      -0.48415167079919169       1.51877185105789511E-005
 -0.89110436769079360      -0.45629161340458113       1.84238634733874598E-005
 -0.89110436769079360      -0.42846961696620961       2.16569103193970221E-005
 -0.89110436769079360      -0.40068204057500301       2.63198577798735455E-005
 -0.89110436769079360      -0.37292558772797563       3.09861360953121959E-005
 -0.89110436769079360      -0.34519724613837155       3.53570626007621328E-005
 -0.89110436769079360      -0.31749423912874575       4.06741866880325025E-005
 -0.89110436769079360      -0.28981398612298037       4.56654550970077039E-005
 -0.89110436769079360      -0.26215407029126964       5.14286654600550850E-005
 -0.89110436769079360      -0.23451221181828233       5.71072193134649519E-005
 -0.89110436769079360      -0.20688624558847907       6.21187025889516212E-005
 -0.89110436769079360      -0.17927410233543425       6.74522500818990138E-005
 -0.89110436769079360      -0.15167379249988833       7.21992722100824958E-005
 -0.89110436769079360      -0.12408339219620076       7.69446319207005546E-005
 -0.89110436769079360      -9.65010308079407436E-002  7.93642116512803178E-005
 -0.89110436769079360      -6.89248798273877361E-002  8.27011075328653770E-005
 -0.89110436769079360      -4.13531426260387580E-002  8.47230381585393116E-005
 -0.89110436769079360      -1.37840448976885785E-002  8.46573476854592936E-005
 -0.89110436769079360       1.37841744446958250E-002  8.52686609205647206E-005
 -0.89110436769079360       4.13532721102009629E-002  8.48176857472060335E-005
 -0.89110436769079360       6.89250091855936470E-002  8.22130277116198984E-005
 -0.89110436769079360       9.65011599765394495E-002  7.95016835768838555E-005
 -0.89110436769079360       0.12408352111071853       7.62936454690366550E-005
 -0.89110436769079360       0.15167392109472305       7.19313993649489745E-005
 -0.89110436769079360       0.17927423054352498       6.72634398561729787E-005
 -0.89110436769079360       0.20688637334093704       6.20380980865205728E-005
 -0.89110436769079360       0.23451233904397376       5.76560587119504336E-005
 -0.89110436769079360       0.26215419691633318       5.14179172032576591E-005
 -0.89110436769079360       0.28981411207026769       4.66300902256554576E-005
 -0.89110436769079360       0.31749436431715267       4.07002585106046191E-005
 -0.89110436769079360       0.34519737048203791       3.60344636058454459E-005
 -0.89110436769079360       0.37292571113532280       3.11109696525993558E-005
 -0.89110436769079360       0.40068216294754977       2.58056231971088785E-005
 -0.89110436769079360       0.42846973819712325       2.21241616646032405E-005
 -0.89110436769079360       0.45629173337689466       1.87463812141245982E-005
 -0.89110436769079360       0.48415178938358033       1.54449343499455311E-005
 -0.89110436769079360       0.51205396647419599       1.23432096893749389E-005
 -0.89110436769079360       0.54000283809313010       9.66161229607224057E-006
 -0.89110436769079360       0.56800360889336476       7.50403710085520340E-006
 -0.89110436769079360       0.59606226391387518       5.61285355963172381E-006
 -0.89110436769079360       0.62418575810760057       3.88936337821758615E-006
 -0.89110436769079360       0.65238225850509945       4.00134721362613880E-006
 -0.89110436769079360       0.68066145565660463       2.96649653960396555E-006
 -0.89110436769079360       0.70903496726264881       2.34354492392434259E-006
 -0.89110436769079360       0.73751686611450729       9.14819237960206098E-007
 -0.89110436769079360       0.76612437831264979       1.36919635363479864E-006
 -0.89110436769079360       0.79487881900860180       6.16903265017894614E-008
 -0.89110436769079360       0.82380686614202325      -2.19430839170264131E-007
 -0.89110436769079360       0.85294232413201765       1.68186049015446255E-008
 -0.89110436769079360       0.88232860047733352       1.41294255078686469E-007
 -0.89110436769079360       0.91202213654836395       6.53355551716963921E-007
 -0.89110436769079360       0.94209610406969357       6.87536817707875409E-007
 -0.89110436769079360       0.97262478525548102       7.66364971952116716E-009
 -0.86305744749771562      -0.97262476494151362      -5.41265474702982840E-007
 -0.86305744749771562      -0.94209606589714401       6.99532747655991260E-007
 -0.86305744749771562      -0.91202208440531585      -3.09065682651426366E-007
 -0.86305744749771562      -0.88232853715729120       6.70580917996009424E-007
 -0.86305744749771562      -0.85294225171344695       5.71192643585385873E-007
 -0.86305744749771562      -0.82380678620885295       7.50494673751141197E-007
 -0.86305744749771562      -0.79487873279034271       4.84778400799209993E-007
 -0.86305744749771562      -0.76612428677815270       1.28182026713929000E-006
 -0.86305744749771562      -0.73751677003709659       1.67380581915294472E-006
 -0.86305744749771562      -0.70903486726666931       3.20637764229322493E-006
 -0.86305744749771562      -0.68066135225151037       4.31530202345921831E-006
 -0.86305744749771562      -0.65238215211081962       5.60827682819609613E-006
 -0.86305744749771562      -0.62418564907375307       7.22948427741969849E-006
 -0.86305744749771562      -0.59606215253446604       8.72519037798187810E-006
 -0.86305744749771562      -0.56800349541816741       1.16612422289762340E-005
 -0.86305744749771562      -0.54000272273654126       1.53867222415432421E-005
 -0.86305744749771562      -0.51205384942218735       1.88739050293034497E-005
 -0.86305744749771562      -0.48415167079919169       2.35173167074963510E-005
 -0.86305744749771562      -0.45629161340458113       2.81247236093063420E-005
 -0.86305744749771562      -0.42846961696620961       3.47843567867859449E-005
 -0.86305744749771562      -0.40068204057500301       4.11085631263157129E-005
 -0.86305744749771562      -0.37292558772797563       4.87053925766965353E-005
 -0.86305744749771562      -0.34519724613837155       5.72626281683862192E-005
 -0.86305744749771562      -0.31749423912874575       6.60315266482818745E-005
 -0.86305744749771562      -0.28981398612298037       7.44816291641357147E-005
 -0.86305744749771562      -0.26215407029126964       8.28605756391254941E-005
 -0.86305744749771562      -0.23451221181828233       9.18690554857414464E-005
 -0.86305744749771562      -0.20688624558847907       1.01396612540242205E-004
 -0.86305744749771562      -0.17927410233543425       1.09959092374357345E-004
 -0.86305744749771562      -0.15167379249988833       1.17286577022948589E-004
 -0.86305744749771562      -0.12408339219620076       1.24499246867350511E-004
 -0.86305744749771562      -9.65010308079407436E-002  1.30295273119524797E-004
 -0.86305744749771562      -6.89248798273877361E-002  1.35197405651488352E-004
 -0.86305744749771562      -4.13531426260387580E-002  1.37377156847446810E-004
 -0.86305744749771562      -1.37840448976885785E-002  1.38907380455504439E-004
 -0.86305744749771562       1.37841744446958250E-002  1.38977866414164705E-004
 -0.86305744749771562       4.13532721102009629E-002  1.37331295498271879E-004
 -0.86305744749771562       6.89250091855936470E-002  1.34791778551384268E-004
 -0.86305744749771562       9.65011599765394495E-002  1.30761595304579358E-004
 -0.86305744749771562       0.12408352111071853       1.24862153069564183E-004
 -0.86305744749771562       0.15167392109472305       1.17834786658891684E-004
 -0.86305744749771562       0.17927423054352498       1.09802260900955561E-004
 -0.86305744749771562       0.20688637334093704       1.00855089935051210E-004
 -0.86305744749771562       0.23451233904397376       9.29680893257973370E-005
 -0.86305744749771562       0.26215419691633318       8.36210848205532549E-005
 -0.86305744749771562       0.28981411207026769       7.43722438322998495E-005
 -0.86305744749771562       0.31749436431715267       6.58125948828674529E-005
 -0.86305744749771562       0.34519737048203791       5.72311123395169492E-005
 -0.86305744749771562       0.37292571113532280       4.84429955374062027E-005
 -0.86305744749771562       0.40068216294754977       4.08464481188871190E-005
 -0.86305744749771562       0.42846973819712325       3.53133364375487650E-005
 -0.86305744749771562       0.45629173337689466       2.88373523307309207E-005
 -0.86305744749771562       0.48415178938358033       2.28714517105927671E-005
 -0.86305744749771562       0.51205396647419599       1.91972082402118438E-005
 -0.86305744749771562       0.54000283809313010       1.46972685394309689E-005
 -0.86305744749771562       0.56800360889336476       1.14264054052184036E-005
 -0.86305744749771562       0.59606226391387518       8.85743378475953682E-006
 -0.86305744749771562       0.62418575810760057       6.62869844781794725E-006
 -0.86305744749771562       0.65238225850509945       5.77215501477364692E-006
 -0.86305744749771562       0.68066145565660463       4.10676159513122057E-006
 -0.86305744749771562       0.70903496726264881       3.31094494397886305E-006
 -0.86305744749771562       0.73751686611450729       2.21005859529748566E-006
 -0.86305744749771562       0.76612437831264979       1.00299712283459650E-006
 -0.86305744749771562       0.79487881900860180       8.08782325678956024E-007
 -0.86305744749771562       0.82380686614202325       5.82939214450103685E-007
 -0.86305744749771562       0.85294232413201765       2.88801498491070501E-007
 -0.86305744749771562       0.88232860047733352      -2.38910234626946909E-007
 -0.86305744749771562       0.91202213654836395       6.09085068274737002E-007
 -0.86305744749771562       0.94209610406969357       1.65059883177038088E-007
 -0.86305744749771562       0.97262478525548102      -5.95673113159485454E-007
 -0.83503037963158100      -0.97262476494151362      -5.34924325681772578E-007
 -0.83503037963158100      -0.94209606589714401      -3.32262743469268518E-007
 -0.83503037963158100      -0.91202208440531585      -3.79219587127144107E-007
 -0.83503037963158100      -0.88232853715729120      -2.23913984169165447E-007
 -0.83503037963158100      -0.85294225171344695       2.15552512572587815E-007
 -0.83503037963158100      -0.82380678620885295       1.59432395587908118E-006
 -0.83503037963158100      -0.79487873279034271       1.80737335397757687E-006
 -0.83503037963158100      -0.76612428677815270       2.53491909988580758E-006
 -0.83503037963158100      -0.73751677003709659       3.21548360244475072E-006
 -0.83503037963158100      -0.70903486726666931       3.59384504355037684E-006
 -0.83503037963158100      -0.68066135225151037       5.84195225404983767E-006
 -0.83503037963158100      -0.65238215211081962       7.17142530823374591E-006
 -0.83503037963158100      -0.62418564907375307       1.08928094822902227E-005
 -0.83503037963158100      -0.59606215253446604       1.38216826284604262E-005
 -0.83503037963158100      -0.56800349541816741       1.74395198803873293E-005
 -0.83503037963158100      -0.54000272273654126       2.25176106260225832E-005
 -0.83503037963158100      -0.51205384942218735       2.85104252220574382E-005
 -0.83503037963158100      -0.48415167079919169       3.58937034714557803E-005
 -0.83503037963158100      -0.45629161340458113       4.45928034868936870E-005
 -0.83503037963158100      -0.42846961696620961       5.44486227212740733E-005
 -0.83503037963158100      -0.40068204057500301       6.47490932844227071E-005
 -0.83503037963158100      -0.37292558772797563       7.59163056681690763E-005
 -0.83503037963158100      -0.34519724613837155       8.96181790796957693E-005
 -0.83503037963158100      -0.31749423912874575       1.03463682203055503E-004
 -0.83503037963158100      -0.28981398612298037       1.17512756379406857E-004
 -0.83503037963158100      -0.26215407029126964       1.31752932808699107E-004
 -0.83503037963158100      -0.23451221181828233       1.46097506654183188E-004
 -0.83503037963158100      -0.20688624558847907       1.60499488524274618E-004