 VARIABLES = "R1 /a_0", "theta/degree", "v/a.u."
 ZONE I=120, J=70, F=point
       1.2128761    178.8565481     -0.0000992
       1.2128761    177.3753007      0.0000355
       1.2128761    175.8853057     -0.0000662
       1.2128761    174.3933343     -0.0000330
       1.2128761    172.9006132      0.0000172
       1.2128761    171.4075293     -0.0000760
       1.2128761    169.9142426     -0.0000264
       1.2128761    168.4208313      0.0000399
       1.2128761    166.9273379     -0.0001045
       1.2128761    165.4337876      0.0001014
       1.2128761    163.9401961     -0.0000879
       1.2128761    162.4465741      0.0000195
       1.2128761    160.9529287     -0.0000482
       1.2128761    159.4592649      0.0000421
       1.2128761    157.9655866     -0.0000123
       1.2128761    156.4718964      0.0000264
       1.2128761    154.9781966     -0.0000605
       1.2128761    153.4844887      0.0000460
       1.2128761    151.9907741     -0.0000719
       1.2128761    150.4970537      0.0000352
       1.2128761    149.0033285     -0.0000140
       1.2128761    147.5095990     -0.0000012
       1.2128761    146.0158659     -0.0000339
       1.2128761    144.5221296     -0.0000225
       1.2128761    143.0283905      0.0000008
       1.2128761    141.5346489     -0.0000600
       1.2128761    140.0409052      0.0000687
       1.2128761    138.5471595     -0.0000205
       1.2128761    137.0534120     -0.0000209
       1.2128761    135.5596630      0.0000595
       1.2128761    134.0659127     -0.0000364
       1.2128761    132.5721610      0.0000569
       1.2128761    131.0784082     -0.0000240
       1.2128761    129.5846544      0.0000345
       1.2128761    128.0908997     -0.0000184
       1.2128761    126.5971441      0.0000203
       1.2128761    125.1033878      0.0000311
       1.2128761    123.6096307     -0.0000046
       1.2128761    122.1158730      0.0000351
       1.2128761    120.6221147      0.0000047
       1.2128761    119.1283559      0.0000519
       1.2128761    117.6345965     -0.0000009
       1.2128761    116.1408368      0.0001230
       1.2128761    114.6470766     -0.0000108
       1.2128761    113.1533161      0.0000972
       1.2128761    111.6595552      0.0000588
       1.2128761    110.1657940      0.0001155
       1.2128761    108.6720325      0.0000118
       1.2128761    107.1782708      0.0001253
       1.2128761    105.6845088      0.0000457
       1.2128761    104.1907467      0.0000531
       1.2128761    102.6969843      0.0001254
       1.2128761    101.2032218      0.0000524
       1.2128761     99.7094592      0.0000578
       1.2128761     98.2156964      0.0000359
       1.2128761     96.7219336      0.0000734
       1.2128761     95.2281706      0.0000328
       1.2128761     93.7344076      0.0000760
       1.2128761     92.2406446      0.0000576
       1.2128761     90.7468815      0.0000737
       1.2128761     89.2531185      0.0000691
       1.2128761     87.7593554      0.0000785
       1.2128761     86.2655924      0.0000749
       1.2128761     84.7718294      0.0000591
       1.2128761     83.2780664      0.0000832
       1.2128761     81.7843036      0.0000188
       1.2128761     80.2905408      0.0000483
       1.2128761     78.7967782     -0.0000103
       1.2128761     77.3030157      0.0000380
       1.2128761     75.8092533     -0.0000216
       1.2128761     74.3154912      0.0000104
       1.2128761     72.8217292     -0.0000236
       1.2128761     71.3279675      0.0000006
       1.2128761     69.8342060     -0.0000229
       1.2128761     68.3404448     -0.0000154
       1.2128761     66.8466839      0.0000062
       1.2128761     65.3529234     -0.0000131
       1.2128761     63.8591632      0.0000251
       1.2128761     62.3654035     -0.0000129
       1.2128761     60.8716441      0.0000349
       1.2128761     59.3778853     -0.0000164
       1.2128761     57.8841270     -0.0000252
       1.2128761     56.3903693      0.0000265
       1.2128761     54.8966122      0.0000071
       1.2128761     53.4028559      0.0000150
       1.2128761     51.9091003     -0.0000232
       1.2128761     50.4153456      0.0000533
       1.2128761     48.9215918     -0.0000503
       1.2128761     47.4278390      0.0000240
       1.2128761     45.9340873     -0.0000009
       1.2128761     44.4403370      0.0000114
       1.2128761     42.9465880     -0.0000334
       1.2128761     41.4528405      0.0000665
       1.2128761     39.9590948     -0.0000498
       1.2128761     38.4653511      0.0000249
       1.2128761     36.9716095     -0.0000309
       1.2128761     35.4778704      0.0000542
       1.2128761     33.9841341     -0.0000499
       1.2128761     32.4904010      0.0000027
       1.2128761     30.9966715      0.0000120
       1.2128761     29.5029463      0.0000431
       1.2128761     28.0092259     -0.0000660
       1.2128761     26.5155113      0.0000456
       1.2128761     25.0218034     -0.0000092
       1.2128761     23.5281036     -0.0000221
       1.2128761     22.0344134      0.0000271
       1.2128761     20.5407351     -0.0000167
       1.2128761     19.0470713     -0.0000230
       1.2128761     17.5534259     -0.0000276
       1.2128761     16.0598039      0.0000687
       1.2128761     14.5662124     -0.0000923
       1.2128761     13.0726621      0.0000646
       1.2128761     11.5791687     -0.0000214
       1.2128761     10.0857574     -0.0000183
       1.2128761      8.5924707     -0.0000718
       1.2128761      7.0993868      0.0002175
       1.2128761      5.6066657     -0.0002247
       1.2128761      4.1146943      0.0002341
       1.2128761      2.6246993     -0.0000959
       1.2128761      1.1434519     -0.0000054
       1.3147999    178.8565481     -0.0003120
       1.3147999    177.3753007     -0.0004360
       1.3147999    175.8853057     -0.0001609
       1.3147999    174.3933343     -0.0001683
       1.3147999    172.9006132     -0.0002414
       1.3147999    171.4075293     -0.0000605
       1.3147999    169.9142426     -0.0000835
       1.3147999    168.4208313     -0.0001072
       1.3147999    166.9273379     -0.0000174
       1.3147999    165.4337876      0.0000017
       1.3147999    163.9401961     -0.0000361
       1.3147999    162.4465741     -0.0000097
       1.3147999    160.9529287      0.0000278
       1.3147999    159.4592649     -0.0000364
       1.3147999    157.9655866      0.0000769
       1.3147999    156.4718964     -0.0000151
       1.3147999    154.9781966     -0.0000121
       1.3147999    153.4844887     -0.0000479
       1.3147999    151.9907741      0.0000020
       1.3147999    150.4970537     -0.0001129
       1.3147999    149.0033285     -0.0000310
       1.3147999    147.5095990     -0.0001054
       1.3147999    146.0158659     -0.0000657
       1.3147999    144.5221296     -0.0000486
       1.3147999    143.0283905     -0.0000132
       1.3147999    141.5346489     -0.0000020
       1.3147999    140.0409052      0.0000801
       1.3147999    138.5471595      0.0000430
       1.3147999    137.0534120      0.0001034
       1.3147999    135.5596630      0.0000743
       1.3147999    134.0659127      0.0001008
       1.3147999    132.5721610      0.0000805
       1.3147999    131.0784082      0.0000948
       1.3147999    129.5846544      0.0000341
       1.3147999    128.0908997      0.0000978
       1.3147999    126.5971441      0.0000625
       1.3147999    125.1033878      0.0001302
       1.3147999    123.6096307      0.0001218
       1.3147999    122.1158730      0.0002328
       1.3147999    120.6221147      0.0002369
       1.3147999    119.1283559      0.0003663
       1.3147999    117.6345965      0.0004097
       1.3147999    116.1408368      0.0004877
       1.3147999    114.6470766      0.0005714
       1.3147999    113.1533161      0.0006462
       1.3147999    111.6595552      0.0006281
       1.3147999    110.1657940      0.0007408
       1.3147999    108.6720325      0.0007032
       1.3147999    107.1782708      0.0007131
       1.3147999    105.6845088      0.0006862
       1.3147999    104.1907467      0.0006493
       1.3147999    102.6969843      0.0005865
       1.3147999    101.2032218      0.0005424
       1.3147999     99.7094592      0.0005276
       1.3147999     98.2156964      0.0004323
       1.3147999     96.7219336      0.0004601
       1.3147999     95.2281706      0.0004030
       1.3147999     93.7344076      0.0003756
       1.3147999     92.2406446      0.0003802
       1.3147999     90.7468815      0.0003899
       1.3147999     89.2531185      0.0003689
       1.3147999     87.7593554      0.0004037
       1.3147999     86.2655924      0.0003491
       1.3147999     84.7718294      0.0003454
       1.3147999     83.2780664      0.0003086
       1.3147999     81.7843036      0.0002557
       1.3147999     80.2905408      0.0002364
       1.3147999     78.7967782      0.0001726
       1.3147999     77.3030157      0.0001132
       1.3147999     75.8092533      0.0001098
       1.3147999     74.3154912      0.0000351
       1.3147999     72.8217292      0.0000255
       1.3147999     71.3279675      0.0000167
       1.3147999     69.8342060     -0.0000093
       1.3147999     68.3404448     -0.0000030
       1.3147999     66.8466839      0.0000181
       1.3147999     65.3529234     -0.0000187
       1.3147999     63.8591632      0.0000344
       1.3147999     62.3654035      0.0000542
       1.3147999     60.8716441      0.0000649
       1.3147999     59.3778853      0.0000221
       1.3147999     57.8841270      0.0000822
       1.3147999     56.3903693      0.0000556
       1.3147999     54.8966122      0.0000618
       1.3147999     53.4028559      0.0000312
       1.3147999     51.9091003      0.0000070
       1.3147999     50.4153456      0.0000524
       1.3147999     48.9215918     -0.0000200
       1.3147999     47.4278390      0.0000522
       1.3147999     45.9340873     -0.0000013
       1.3147999     44.4403370      0.0000091
       1.3147999     42.9465880     -0.0000007
       1.3147999     41.4528405      0.0000195
       1.3147999     39.9590948     -0.0000360
       1.3147999     38.4653511      0.0000639
       1.3147999     36.9716095     -0.0000457
       1.3147999     35.4778704      0.0000541
       1.3147999     33.9841341     -0.0000589
       1.3147999     32.4904010      0.0000589
       1.3147999     30.9966715     -0.0000423
       1.3147999     29.5029463      0.0000606
       1.3147999     28.0092259     -0.0000223
       1.3147999     26.5155113     -0.0000094
       1.3147999     25.0218034     -0.0000022
       1.3147999     23.5281036     -0.0000303
       1.3147999     22.0344134      0.0000440
       1.3147999     20.5407351     -0.0000477
       1.3147999     19.0470713      0.0000176
       1.3147999     17.5534259     -0.0000351
       1.3147999     16.0598039      0.0000401
       1.3147999     14.5662124     -0.0000405
       1.3147999     13.0726621     -0.0000118
       1.3147999     11.5791687      0.0000830
       1.3147999     10.0857574     -0.0000646
       1.3147999      8.5924707      0.0000365
       1.3147999      7.0993868      0.0000030
       1.3147999      5.6066657      0.0000623
       1.3147999      4.1146943     -0.0001364
       1.3147999      2.6246993      0.0002797
       1.3147999      1.1434519     -0.0001924
       1.4062338    178.8565481     -0.0008262
       1.4062338    177.3753007     -0.0007982
       1.4062338    175.8853057     -0.0006156
       1.4062338    174.3933343     -0.0005563
       1.4062338    172.9006132     -0.0004005
       1.4062338    171.4075293     -0.0003228
       1.4062338    169.9142426     -0.0001634
       1.4062338    168.4208313     -0.0002299
       1.4062338    166.9273379     -0.0001065
       1.4062338    165.4337876     -0.0000881
       1.4062338    163.9401961     -0.0000318
       1.4062338    162.4465741     -0.0000447
       1.4062338    160.9529287      0.0000479
       1.4062338    159.4592649     -0.0000095
       1.4062338    157.9655866      0.0000416
       1.4062338    156.4718964      0.0000577
       1.4062338    154.9781966     -0.0000327
       1.4062338    153.4844887     -0.0000383
       1.4062338    151.9907741     -0.0000534
       1.4062338    150.4970537     -0.0001407
       1.4062338    149.0033285     -0.0001007
       1.4062338    147.5095990     -0.0001454
       1.4062338    146.0158659     -0.0000829
       1.4062338    144.5221296     -0.0000408
       1.4062338    143.0283905     -0.0000061
       1.4062338    141.5346489      0.0000237
       1.4062338    140.0409052      0.0000902
       1.4062338    138.5471595      0.0000846
       1.4062338    137.0534120      0.0001029
       1.4062338    135.5596630      0.0001035
       1.4062338    134.0659127      0.0000939
       1.4062338    132.5721610      0.0000488
       1.4062338    131.0784082      0.0001049
       1.4062338    129.5846544      0.0000805
       1.4062338    128.0908997      0.0001498
       1.4062338    126.5971441      0.0002830
       1.4062338    125.1033878      0.0004455
       1.4062338    123.6096307      0.0006684
       1.4062338    122.1158730      0.0009980
       1.4062338    120.6221147      0.0013878
       1.4062338    119.1283559      0.0018135
       1.4062338    117.6345965      0.0022351
       1.4062338    116.1408368      0.0027117
       1.4062338    114.6470766      0.0030784
       1.4062338    113.1533161      0.0034580
       1.4062338    111.6595552      0.0036744
       1.4062338    110.1657940      0.0038080
       1.4062338    108.6720325      0.0038924
       1.4062338    107.1782708      0.0037770
       1.4062338    105.6845088      0.0036000
       1.4062338    104.1907467      0.0033987
       1.4062338    102.6969843      0.0030613
       1.4062338    101.2032218      0.0027956
       1.4062338     99.7094592      0.0024852
       1.4062338     98.2156964      0.0021658
       1.4062338     96.7219336      0.0019204
       1.4062338     95.2281706      0.0016524
       1.4062338     93.7344076      0.0015075
       1.4062338     92.2406446      0.0013915
       1.4062338     90.7468815      0.0012806
       1.4062338     89.2531185      0.0012107
       1.4062338     87.7593554      0.0011899
       1.4062338     86.2655924      0.0011299
       1.4062338     84.7718294      0.0011090
       1.4062338     83.2780664      0.0010080
       1.4062338     81.7843036      0.0009393
       1.4062338     80.2905408      0.0008489
       1.4062338     78.7967782      0.0007010
       1.4062338     77.3030157      0.0006008
       1.4062338     75.8092533      0.0004585
       1.4062338     74.3154912      0.0003700
       1.4062338     72.8217292      0.0002174
       1.4062338     71.3279675      0.0002008
       1.4062338     69.8342060      0.0000899
       1.4062338     68.3404448      0.0000998
       1.4062338     66.8466839      0.0000787
       1.4062338     65.3529234      0.0000467
       1.4062338     63.8591632      0.0001479
       1.4062338     62.3654035      0.0000856
       1.4062338     60.8716441      0.0001395
       1.4062338     59.3778853      0.0001159
       1.4062338     57.8841270      0.0001444
       1.4062338     56.3903693      0.0000833
       1.4062338     54.8966122      0.0001203
       1.4062338     53.4028559      0.0000329
       1.4062338     51.9091003      0.0000289
       1.4062338     50.4153456      0.0000533
       1.4062338     48.9215918     -0.0000309
       1.4062338     47.4278390     -0.0000167
       1.4062338     45.9340873     -0.0000131
       1.4062338     44.4403370     -0.0000614
       1.4062338     42.9465880      0.0000108
       1.4062338     41.4528405     -0.0000091
       1.4062338     39.9590948     -0.0000594
       1.4062338     38.4653511      0.0000066
       1.4062338     36.9716095     -0.0000467
       1.4062338     35.4778704      0.0000062
       1.4062338     33.9841341      0.0000336
       1.4062338     32.4904010     -0.0000388
       1.4062338     30.9966715     -0.0000076
       1.4062338     29.5029463      0.0000091
       1.4062338     28.0092259     -0.0000071
       1.4062338     26.5155113      0.0000312
       1.4062338     25.0218034     -0.0000453
       1.4062338     23.5281036      0.0000388
       1.4062338     22.0344134     -0.0000477
       1.4062338     20.5407351      0.0000353
       1.4062338     19.0470713     -0.0000176
       1.4062338     17.5534259      0.0000039
       1.4062338     16.0598039      0.0000036
       1.4062338     14.5662124      0.0000590
       1.4062338     13.0726621     -0.0000698
       1.4062338     11.5791687      0.0000119
       1.4062338     10.0857574      0.0000151
       1.4062338      8.5924707     -0.0000248
       1.4062338      7.0993868      0.0000375
       1.4062338      5.6066657      0.0000007
       1.4062338      4.1146943      0.0000057
       1.4062338      2.6246993     -0.0000647
       1.4062338      1.1434519      0.0000657
       1.4928203    178.8565481     -0.0014033
       1.4928203    177.3753007     -0.0014724
       1.4928203    175.8853057     -0.0012984
       1.4928203    174.3933343     -0.0010687
       1.4928203    172.9006132     -0.0009865
       1.4928203    171.4075293     -0.0007650
       1.4928203    169.9142426     -0.0007326
       1.4928203    168.4208313     -0.0006095
       1.4928203    166.9273379     -0.0004991
       1.4928203    165.4337876     -0.0004282
       1.4928203    163.9401961     -0.0002833
       1.4928203    162.4465741     -0.0001214
       1.4928203    160.9529287     -0.0000157
       1.4928203    159.4592649      0.0000908
       1.4928203    157.9655866      0.0001617
       1.4928203    156.4718964      0.0001680
       1.4928203    154.9781966      0.0001767
       1.4928203    153.4844887      0.0000999
       1.4928203    151.9907741      0.0000069
       1.4928203    150.4970537     -0.0000736
       1.4928203    149.0033285     -0.0001618
       1.4928203    147.5095990     -0.0002233
       1.4928203    146.0158659     -0.0002626
       1.4928203    144.5221296     -0.0002628
       1.4928203    143.0283905     -0.0003587
       1.4928203    141.5346489     -0.0003325
       1.4928203    140.0409052     -0.0004721
       1.4928203    138.5471595     -0.0004937
       1.4928203    137.0534120     -0.0006034
       1.4928203    135.5596630     -0.0006722
       1.4928203    134.0659127     -0.0007402
       1.4928203    132.5721610     -0.0007117
       1.4928203    131.0784082     -0.0006907
       1.4928203    129.5846544     -0.0004947
       1.4928203    128.0908997     -0.0002175
       1.4928203    126.5971441      0.0002734
       1.4928203    125.1033878      0.0009126
       1.4928203    123.6096307      0.0018246
       1.4928203    122.1158730      0.0029194
       1.4928203    120.6221147      0.0042088
       1.4928203    119.1283559      0.0057291
       1.4928203    117.6345965      0.0072470
       1.4928203    116.1408368      0.0088213
       1.4928203    114.6470766      0.0102667
       1.4928203    113.1533161      0.0114361
       1.4928203    111.6595552      0.0123367
       1.4928203    110.1657940      0.0128612
       1.4928203    108.6720325      0.0130180
       1.4928203    107.1782708      0.0128057
       1.4928203    105.6845088      0.0122529
       1.4928203    104.1907467      0.0114535
       1.4928203    102.6969843      0.0105238
       1.4928203    101.2032218      0.0093930
       1.4928203     99.7094592      0.0082752
       1.4928203     98.2156964      0.0071884
       1.4928203     96.7219336      0.0061509
       1.4928203     95.2281706      0.0052601
       1.4928203     93.7344076      0.0044972
       1.4928203     92.2406446      0.0038705
       1.4928203     90.7468815      0.0034370
       1.4928203     89.2531185      0.0030615
       1.4928203     87.7593554      0.0028558
       1.4928203     86.2655924      0.0026712
       1.4928203     84.7718294      0.0024802
       1.4928203     83.2780664      0.0023475
       1.4928203     81.7843036      0.0021633
       1.4928203     80.2905408      0.0019398
       1.4928203     78.7967782      0.0017341
       1.4928203     77.3030157      0.0014737
       1.4928203     75.8092533      0.0012506
       1.4928203     74.3154912      0.0010273
       1.4928203     72.8217292      0.0008426
       1.4928203     71.3279675      0.0006607
       1.4928203     69.8342060      0.0005896
       1.4928203     68.3404448      0.0004455
       1.4928203     66.8466839      0.0004198
       1.4928203     65.3529234      0.0003628
       1.4928203     63.8591632      0.0003038
       1.4928203     62.3654035      0.0003063
       1.4928203     60.8716441      0.0002392
       1.4928203     59.3778853      0.0002321
       1.4928203     57.8841270      0.0001799
       1.4928203     56.3903693      0.0001469
       1.4928203     54.8966122      0.0001076
       1.4928203     53.4028559      0.0000647
       1.4928203     51.9091003      0.0000099
       1.4928203     50.4153456     -0.0000310
       1.4928203     48.9215918     -0.0000552
       1.4928203     47.4278390     -0.0000867
       1.4928203     45.9340873     -0.0000918
       1.4928203     44.4403370     -0.0001063
       1.4928203     42.9465880     -0.0000944
       1.4928203     41.4528405     -0.0001281
       1.4928203     39.9590948     -0.0000599
       1.4928203     38.4653511     -0.0000543
       1.4928203     36.9716095     -0.0000801
       1.4928203     35.4778704     -0.0000403
       1.4928203     33.9841341     -0.0000515
       1.4928203     32.4904010     -0.0000296
       1.4928203     30.9966715      0.0000048
       1.4928203     29.5029463     -0.0000280
       1.4928203     28.0092259     -0.0000209
       1.4928203     26.5155113      0.0000600
       1.4928203     25.0218034     -0.0000184
       1.4928203     23.5281036      0.0000330
       1.4928203     22.0344134      0.0000119
       1.4928203     20.5407351     -0.0000395
       1.4928203     19.0470713      0.0000276
       1.4928203     17.5534259     -0.0000250
       1.4928203     16.0598039      0.0000099
       1.4928203     14.5662124      0.0000096
       1.4928203     13.0726621      0.0000340
       1.4928203     11.5791687     -0.0000359
       1.4928203     10.0857574      0.0000532
       1.4928203      8.5924707      0.0000207
       1.4928203      7.0993868     -0.0000372
       1.4928203      5.6066657      0.0000624
       1.4928203      4.1146943     -0.0000850
       1.4928203      2.6246993      0.0001486
       1.4928203      1.1434519      0.0000548
       1.5766303    178.8565481     -0.0023832
       1.5766303    177.3753007     -0.0021461
       1.5766303    175.8853057     -0.0020496
       1.5766303    174.3933343     -0.0017219
       1.5766303    172.9006132     -0.0016147
       1.5766303    171.4075293     -0.0012853
       1.5766303    169.9142426     -0.0012789
       1.5766303    168.4208313     -0.0010862
       1.5766303    166.9273379     -0.0009707
       1.5766303    165.4337876     -0.0008074
       1.5766303    163.9401961     -0.0005514
       1.5766303    162.4465741     -0.0004191
       1.5766303    160.9529287     -0.0002160
       1.5766303    159.4592649      0.0000360
       1.5766303    157.9655866      0.0000103
       1.5766303    156.4718964      0.0001407
       1.5766303    154.9781966     -0.0000021
       1.5766303    153.4844887     -0.0001609
       1.5766303    151.9907741     -0.0002948
       1.5766303    150.4970537     -0.0005693
       1.5766303    149.0033285     -0.0007648
       1.5766303    147.5095990     -0.0009634
       1.5766303    146.0158659     -0.0011770
       1.5766303    144.5221296     -0.0013054
       1.5766303    143.0283905     -0.0015120
       1.5766303    141.5346489     -0.0017686
       1.5766303    140.0409052     -0.0020435
       1.5766303    138.5471595     -0.0023494
       1.5766303    137.0534120     -0.0026816
       1.5766303    135.5596630     -0.0029509
       1.5766303    134.0659127     -0.0030701
       1.5766303    132.5721610     -0.0031238
       1.5766303    131.0784082     -0.0028731
       1.5766303    129.5846544     -0.0023642
       1.5766303    128.0908997     -0.0015337
       1.5766303    126.5971441     -0.0002226
       1.5766303    125.1033878      0.0015361
       1.5766303    123.6096307      0.0038121
       1.5766303    122.1158730      0.0065825
       1.5766303    120.6221147      0.0098063
       1.5766303    119.1283559      0.0132788
       1.5766303    117.6345965      0.0169763
       1.5766303    116.1408368      0.0205027
       1.5766303    114.6470766      0.0238708
       1.5766303    113.1533161      0.0266839
       1.5766303    111.6595552      0.0288387
       1.5766303    110.1657940      0.0302220
       1.5766303    108.6720325      0.0307751
       1.5766303    107.1782708      0.0304198
       1.5766303    105.6845088      0.0293834
       1.5766303    104.1907467      0.0276648
       1.5766303    102.6969843      0.0254158
       1.5766303    101.2032218      0.0228987
       1.5766303     99.7094592      0.0201887
       1.5766303     98.2156964      0.0174980
       1.5766303     96.7219336      0.0149691
       1.5766303     95.2281706      0.0126108
       1.5766303     93.7344076      0.0106039
       1.5766303     92.2406446      0.0089089
       1.5766303     90.7468815      0.0075319
       1.5766303     89.2531185      0.0064120
       1.5766303     87.7593554      0.0055586
       1.5766303     86.2655924      0.0048839
       1.5766303     84.7718294      0.0043022
       1.5766303     83.2780664      0.0038282
       1.5766303     81.7843036      0.0033594
       1.5766303     80.2905408      0.0029940
       1.5766303     78.7967782      0.0026035
       1.5766303     77.3030157      0.0023286
       1.5766303     75.8092533      0.0020434
       1.5766303     74.3154912      0.0018490
       1.5766303     72.8217292      0.0016956
       1.5766303     71.3279675      0.0015523
       1.5766303     69.8342060      0.0014557
       1.5766303     68.3404448      0.0013078
       1.5766303     66.8466839      0.0012204
       1.5766303     65.3529234      0.0010570
       1.5766303     63.8591632      0.0008932
       1.5766303     62.3654035      0.0007616
       1.5766303     60.8716441      0.0005967
       1.5766303     59.3778853      0.0004734
       1.5766303     57.8841270      0.0003267
       1.5766303     56.3903693      0.0002132
       1.5766303     54.8966122      0.0000980
       1.5766303     53.4028559     -0.0000053
       1.5766303     51.9091003     -0.0000786
       1.5766303     50.4153456     -0.0001546
       1.5766303     48.9215918     -0.0001971
       1.5766303     47.4278390     -0.0002096
       1.5766303     45.9340873     -0.0002191
       1.5766303     44.4403370     -0.0001890
       1.5766303     42.9465880     -0.0001783
       1.5766303     41.4528405     -0.0001279
       1.5766303     39.9590948     -0.0001380
       1.5766303     38.4653511     -0.0001285
       1.5766303     36.9716095     -0.0000671
       1.5766303     35.4778704     -0.0000978
       1.5766303     33.9841341     -0.0000313
       1.5766303     32.4904010     -0.0000684
       1.5766303     30.9966715     -0.0000160
       1.5766303     29.5029463     -0.0000363
       1.5766303     28.0092259     -0.0000001
       1.5766303     26.5155113      0.0000298
       1.5766303     25.0218034     -0.0000153
       1.5766303     23.5281036      0.0000157
       1.5766303     22.0344134      0.0000018
       1.5766303     20.5407351      0.0000039
       1.5766303     19.0470713      0.0000459
       1.5766303     17.5534259     -0.0000213
       1.5766303     16.0598039      0.0000188
       1.5766303     14.5662124      0.0000069
       1.5766303     13.0726621     -0.0000494
       1.5766303     11.5791687      0.0000563
       1.5766303     10.0857574      0.0000522
       1.5766303      8.5924707     -0.0000854
       1.5766303      7.0993868      0.0001189
       1.5766303      5.6066657      0.0000110
       1.5766303      4.1146943     -0.0001281
       1.5766303      2.6246993      0.0002229
       1.5766303      1.1434519     -0.0001329
       1.6587320    178.8565481     -0.0023677
       1.6587320    177.3753007     -0.0021554
       1.6587320    175.8853057     -0.0018692
       1.6587320    174.3933343     -0.0017886
       1.6587320    172.9006132     -0.0015341
       1.6587320    171.4075293     -0.0013432
       1.6587320    169.9142426     -0.0011502
       1.6587320    168.4208313     -0.0009869
       1.6587320    166.9273379     -0.0008638
       1.6587320    165.4337876     -0.0007281
       1.6587320    163.9401961     -0.0005655
       1.6587320    162.4465741     -0.0004305
       1.6587320    160.9529287     -0.0003220
       1.6587320    159.4592649     -0.0003080
       1.6587320    157.9655866     -0.0003710
       1.6587320    156.4718964     -0.0005098
       1.6587320    154.9781966     -0.0008205
       1.6587320    153.4844887     -0.0011244
       1.6587320    151.9907741     -0.0015214
       1.6587320    150.4970537     -0.0019136
       1.6587320    149.0033285     -0.0022667
       1.6587320    147.5095990     -0.0026556
       1.6587320    146.0158659     -0.0029397
       1.6587320    144.5221296     -0.0032815
       1.6587320    143.0283905     -0.0036799
       1.6587320    141.5346489     -0.0041044
       1.6587320    140.0409052     -0.0046726
       1.6587320    138.5471595     -0.0052415
       1.6587320    137.0534120     -0.0058019
       1.6587320    135.5596630     -0.0062099
       1.6587320    134.0659127     -0.0063879
       1.6587320    132.5721610     -0.0061632
       1.6587320    131.0784082     -0.0056122
       1.6587320    129.5846544     -0.0044462
       1.6587320    128.0908997     -0.0027013
       1.6587320    126.5971441     -0.0002361