 VARIABLES = "R1 /a_0", "R2 /a_0", "v/a.u."
 ZONE I=70, J=70, F=point
       1.2128761      1.2128761      0.0001517
       1.2128761      1.3147999      0.0000267
       1.2128761      1.4062338     -0.0000139
       1.2128761      1.4928203     -0.0000021
       1.2128761      1.5766303     -0.0000097
       1.2128761      1.6587320      0.0001115
       1.2128761      1.7397800      0.0001225
       1.2128761      1.8202149      0.0000432
       1.2128761      1.9003499      0.0000537
       1.2128761      1.9804146      0.0000476
       1.2128761      2.0605805      0.0000544
       1.2128761      2.1409771     -0.0000226
       1.2128761      2.2217027     -0.0000006
       1.2128761      2.3028321      0.0000291
       1.2128761      2.3844224      0.0000258
       1.2128761      2.4665167      0.0000216
       1.2128761      2.5491467      0.0000256
       1.2128761      2.6323351     -0.0000199
       1.2128761      2.7160969      0.0000032
       1.2128761      2.8004403     -0.0000086
       1.2128761      2.8853677      0.0000110
       1.2128761      2.9708763      0.0000342
       1.2128761      3.0569588      0.0000046
       1.2128761      3.1436037      0.0000101
       1.2128761      3.2307962      0.0000022
       1.2128761      3.3185182     -0.0000010
       1.2128761      3.4067494     -0.0000283
       1.2128761      3.4954676      0.0000075
       1.2128761      3.5846488      0.0000170
       1.2128761      3.6742685      0.0000044
       1.2128761      3.7643013      0.0000342
       1.2128761      3.8547217      0.0000082
       1.2128761      3.9455043      0.0000110
       1.2128761      4.0366245     -0.0000147
       1.2128761      4.1280580     -0.0000046
       1.2128761      4.2197816     -0.0000082
       1.2128761      4.3117732      0.0000129
       1.2128761      4.4040119      0.0000164
       1.2128761      4.4964778     -0.0000369
       1.2128761      4.5891524     -0.0000077
       1.2128761      4.6820186     -0.0000242
       1.2128761      4.7750606      0.0000421
       1.2128761      4.8682635     -0.0000030
       1.2128761      4.9616140      0.0000060
       1.2128761      5.0550998      0.0000210
       1.2128761      5.1487097     -0.0000214
       1.2128761      5.2424336      0.0000117
       1.2128761      5.3362622      0.0000084
       1.2128761      5.4301872     -0.0000318
       1.2128761      5.5242012     -0.0000216
       1.2128761      5.6182975      0.0000003
       1.2128761      5.7124701      0.0000124
       1.2128761      5.8067136     -0.0000057
       1.2128761      5.9010234      0.0000199
       1.2128761      5.9953952      0.0000111
       1.2128761      6.0898253     -0.0000001
       1.2128761      6.1843105      0.0000124
       1.2128761      6.2788478      0.0000321
       1.2128761      6.3734349     -0.0000182
       1.2128761      6.4680696      0.0000117
       1.2128761      6.5627500      0.0000120
       1.2128761      6.6574746      0.0000111
       1.2128761      6.7522421     -0.0000112
       1.2128761      6.8470513     -0.0000076
       1.2128761      6.9419014     -0.0000162
       1.2128761      7.0367912     -0.0000104
       1.2128761      7.1317193      0.0000340
       1.2128761      7.2266821     -0.0000032
       1.2128761      7.3216650     -0.0000286
       1.2128761      7.4165527     -0.0000011
       1.3147999      1.2128761      0.0000555
       1.3147999      1.3147999     -0.0000927
       1.3147999      1.4062338      0.0000646
       1.3147999      1.4928203      0.0001422
       1.3147999      1.5766303      0.0002779
       1.3147999      1.6587320      0.0005719
       1.3147999      1.7397800      0.0006970
       1.3147999      1.8202149      0.0006851
       1.3147999      1.9003499      0.0004956
       1.3147999      1.9804146      0.0003954
       1.3147999      2.0605805      0.0003134
       1.3147999      2.1409771      0.0002103
       1.3147999      2.2217027      0.0001455
       1.3147999      2.3028321      0.0000912
       1.3147999      2.3844224      0.0000396
       1.3147999      2.4665167      0.0000516
       1.3147999      2.5491467      0.0000160
       1.3147999      2.6323351      0.0000397
       1.3147999      2.7160969      0.0000274
       1.3147999      2.8004403      0.0000108
       1.3147999      2.8853677     -0.0000402
       1.3147999      2.9708763      0.0000230
       1.3147999      3.0569588      0.0000033
       1.3147999      3.1436037      0.0000182
       1.3147999      3.2307962      0.0000033
       1.3147999      3.3185182     -0.0000028
       1.3147999      3.4067494      0.0000238
       1.3147999      3.4954676      0.0000301
       1.3147999      3.5846488      0.0000174
       1.3147999      3.6742685     -0.0000293
       1.3147999      3.7643013     -0.0000046
       1.3147999      3.8547217     -0.0000020
       1.3147999      3.9455043      0.0000112
       1.3147999      4.0366245      0.0000181
       1.3147999      4.1280580     -0.0000206
       1.3147999      4.2197816      0.0000141
       1.3147999      4.3117732      0.0000001
       1.3147999      4.4040119      0.0000160
       1.3147999      4.4964778      0.0000352
       1.3147999      4.5891524      0.0000098
       1.3147999      4.6820186     -0.0000007
       1.3147999      4.7750606     -0.0000097
       1.3147999      4.8682635      0.0000350
       1.3147999      4.9616140      0.0000140
       1.3147999      5.0550998      0.0000038
       1.3147999      5.1487097     -0.0000010
       1.3147999      5.2424336      0.0000043
       1.3147999      5.3362622      0.0000170
       1.3147999      5.4301872     -0.0000024
       1.3147999      5.5242012      0.0000056
       1.3147999      5.6182975     -0.0000189
       1.3147999      5.7124701     -0.0000005
       1.3147999      5.8067136     -0.0000029
       1.3147999      5.9010234     -0.0000016
       1.3147999      5.9953952      0.0000219
       1.3147999      6.0898253     -0.0000447
       1.3147999      6.1843105      0.0000425
       1.3147999      6.2788478     -0.0000116
       1.3147999      6.3734349      0.0000274
       1.3147999      6.4680696      0.0000033
       1.3147999      6.5627500      0.0000132
       1.3147999      6.6574746      0.0000330
       1.3147999      6.7522421     -0.0000254
       1.3147999      6.8470513      0.0000138
       1.3147999      6.9419014      0.0000177
       1.3147999      7.0367912     -0.0000054
       1.3147999      7.1317193      0.0000091
       1.3147999      7.2266821     -0.0000107
       1.3147999      7.3216650     -0.0000123
       1.3147999      7.4165527      0.0000139
       1.4062338      1.2128761      0.0001315
       1.4062338      1.3147999      0.0001418
       1.4062338      1.4062338      0.0002061
       1.4062338      1.4928203      0.0008015
       1.4062338      1.5766303      0.0018315
       1.4062338      1.6587320      0.0029912
       1.4062338      1.7397800      0.0036918
       1.4062338      1.8202149      0.0036905
       1.4062338      1.9003499      0.0030813
       1.4062338      1.9804146      0.0022379
       1.4062338      2.0605805      0.0014364
       1.4062338      2.1409771      0.0007956
       1.4062338      2.2217027      0.0003185
       1.4062338      2.3028321      0.0000173
       1.4062338      2.3844224     -0.0000321
       1.4062338      2.4665167      0.0000120
       1.4062338      2.5491467      0.0000404
       1.4062338      2.6323351      0.0000713
       1.4062338      2.7160969      0.0000436
       1.4062338      2.8004403     -0.0000282
       1.4062338      2.8853677     -0.0000520
       1.4062338      2.9708763     -0.0000279
       1.4062338      3.0569588      0.0000373
       1.4062338      3.1436037      0.0000400
       1.4062338      3.2307962      0.0000259
       1.4062338      3.3185182     -0.0000062
       1.4062338      3.4067494      0.0000451
       1.4062338      3.4954676      0.0000460
       1.4062338      3.5846488      0.0000406
       1.4062338      3.6742685      0.0000213
       1.4062338      3.7643013      0.0000074
       1.4062338      3.8547217     -0.0000143
       1.4062338      3.9455043      0.0000082
       1.4062338      4.0366245     -0.0000083
       1.4062338      4.1280580      0.0000181
       1.4062338      4.2197816     -0.0000016
       1.4062338      4.3117732      0.0000095
       1.4062338      4.4040119     -0.0000019
       1.4062338      4.4964778     -0.0000054
       1.4062338      4.5891524      0.0000144
       1.4062338      4.6820186      0.0000065
       1.4062338      4.7750606      0.0000097
       1.4062338      4.8682635     -0.0000253
       1.4062338      4.9616140     -0.0000167
       1.4062338      5.0550998     -0.0000135
       1.4062338      5.1487097     -0.0000400
       1.4062338      5.2424336     -0.0000164
       1.4062338      5.3362622     -0.0000101
       1.4062338      5.4301872     -0.0000131
       1.4062338      5.5242012     -0.0000175
       1.4062338      5.6182975     -0.0000038
       1.4062338      5.7124701     -0.0000086
       1.4062338      5.8067136      0.0000106
       1.4062338      5.9010234      0.0000014
       1.4062338      5.9953952      0.0000043
       1.4062338      6.0898253     -0.0000092
       1.4062338      6.1843105      0.0000077
       1.4062338      6.2788478      0.0000199
       1.4062338      6.3734349     -0.0000008
       1.4062338      6.4680696      0.0000172
       1.4062338      6.5627500      0.0000149
       1.4062338      6.6574746     -0.0000046
       1.4062338      6.7522421      0.0000019
       1.4062338      6.8470513     -0.0000287
       1.4062338      6.9419014      0.0000072
       1.4062338      7.0367912      0.0000061
       1.4062338      7.1317193      0.0000029
       1.4062338      7.2266821     -0.0000073
       1.4062338      7.3216650      0.0000089
       1.4062338      7.4165527     -0.0000018
       1.4928203      1.2128761     -0.0000089
       1.4928203      1.3147999      0.0001290
       1.4928203      1.4062338      0.0008390
       1.4928203      1.4928203      0.0026953
       1.4928203      1.5766303      0.0061546
       1.4928203      1.6587320      0.0100241
       1.4928203      1.7397800      0.0125168
       1.4928203      1.8202149      0.0125527
       1.4928203      1.9003499      0.0104410
       1.4928203      1.9804146      0.0073840
       1.4928203      2.0605805      0.0045495
       1.4928203      2.1409771      0.0023300
       1.4928203      2.2217027      0.0007553
       1.4928203      2.3028321     -0.0000819
       1.4928203      2.3844224     -0.0002532
       1.4928203      2.4665167     -0.0001266
       1.4928203      2.5491467      0.0000068
       1.4928203      2.6323351      0.0001359
       1.4928203      2.7160969      0.0000742
       1.4928203      2.8004403     -0.0000757
       1.4928203      2.8853677     -0.0000965
       1.4928203      2.9708763     -0.0000276
       1.4928203      3.0569588      0.0000237
       1.4928203      3.1436037      0.0000547
       1.4928203      3.2307962      0.0000347
       1.4928203      3.3185182      0.0000443
       1.4928203      3.4067494     -0.0000025
       1.4928203      3.4954676      0.0000219
       1.4928203      3.5846488      0.0000259
       1.4928203      3.6742685      0.0000150
       1.4928203      3.7643013      0.0000019
       1.4928203      3.8547217     -0.0000164
       1.4928203      3.9455043     -0.0000014
       1.4928203      4.0366245     -0.0000062
       1.4928203      4.1280580      0.0000204
       1.4928203      4.2197816     -0.0000142
       1.4928203      4.3117732      0.0000029
       1.4928203      4.4040119      0.0000072
       1.4928203      4.4964778     -0.0000058
       1.4928203      4.5891524      0.0000374
       1.4928203      4.6820186      0.0000081
       1.4928203      4.7750606     -0.0000250
       1.4928203      4.8682635      0.0000022
       1.4928203      4.9616140     -0.0000256
       1.4928203      5.0550998     -0.0000094
       1.4928203      5.1487097     -0.0000417
       1.4928203      5.2424336     -0.0000026
       1.4928203      5.3362622      0.0000213
       1.4928203      5.4301872     -0.0000247
       1.4928203      5.5242012     -0.0000229
       1.4928203      5.6182975     -0.0000177
       1.4928203      5.7124701      0.0000220
       1.4928203      5.8067136      0.0000428
       1.4928203      5.9010234      0.0000090
       1.4928203      5.9953952      0.0000058
       1.4928203      6.0898253      0.0000009
       1.4928203      6.1843105      0.0000116
       1.4928203      6.2788478      0.0000157
       1.4928203      6.3734349      0.0000078
       1.4928203      6.4680696      0.0000177
       1.4928203      6.5627500      0.0000272
       1.4928203      6.6574746      0.0000302
       1.4928203      6.7522421     -0.0000313
       1.4928203      6.8470513      0.0000179
       1.4928203      6.9419014      0.0000214
       1.4928203      7.0367912     -0.0000075
       1.4928203      7.1317193      0.0000206
       1.4928203      7.2266821      0.0000010
       1.4928203      7.3216650      0.0000033
       1.4928203      7.4165527     -0.0000079
       1.5766303      1.2128761      0.0000155
       1.5766303      1.3147999      0.0003267
       1.5766303      1.4062338      0.0018327
       1.5766303      1.4928203      0.0062864
       1.5766303      1.5766303      0.0143229
       1.5766303      1.6587320      0.0236201
       1.5766303      1.7397800      0.0297336
       1.5766303      1.8202149      0.0297922
       1.5766303      1.9003499      0.0244673
       1.5766303      1.9804146      0.0168876
       1.5766303      2.0605805      0.0100012
       1.5766303      2.1409771      0.0048502
       1.5766303      2.2217027      0.0015657
       1.5766303      2.3028321     -0.0000859
       1.5766303      2.3844224     -0.0005423
       1.5766303      2.4665167     -0.0003603
       1.5766303      2.5491467     -0.0000417
       1.5766303      2.6323351      0.0001772
       1.5766303      2.7160969      0.0001775
       1.5766303      2.8004403      0.0000541
       1.5766303      2.8853677      0.0000281
       1.5766303      2.9708763      0.0000570
       1.5766303      3.0569588      0.0000703
       1.5766303      3.1436037      0.0000553
       1.5766303      3.2307962      0.0000600
       1.5766303      3.3185182      0.0000054
       1.5766303      3.4067494      0.0000217
       1.5766303      3.4954676      0.0000215
       1.5766303      3.5846488      0.0000083
       1.5766303      3.6742685     -0.0000247
       1.5766303      3.7643013      0.0000067
       1.5766303      3.8547217      0.0000037
       1.5766303      3.9455043      0.0000110
       1.5766303      4.0366245     -0.0000130
       1.5766303      4.1280580      0.0000223
       1.5766303      4.2197816     -0.0000040
       1.5766303      4.3117732      0.0000024
       1.5766303      4.4040119      0.0000061
       1.5766303      4.4964778     -0.0000041
       1.5766303      4.5891524      0.0000519
       1.5766303      4.6820186      0.0000382
       1.5766303      4.7750606     -0.0000039
       1.5766303      4.8682635     -0.0000124
       1.5766303      4.9616140      0.0000068
       1.5766303      5.0550998     -0.0000194
       1.5766303      5.1487097     -0.0000295
       1.5766303      5.2424336     -0.0000067
       1.5766303      5.3362622      0.0000138
       1.5766303      5.4301872     -0.0000292
       1.5766303      5.5242012     -0.0000355
       1.5766303      5.6182975     -0.0000045
       1.5766303      5.7124701      0.0000028
       1.5766303      5.8067136      0.0000192
       1.5766303      5.9010234      0.0000166
       1.5766303      5.9953952      0.0000047
       1.5766303      6.0898253      0.0000180
       1.5766303      6.1843105     -0.0000223
       1.5766303      6.2788478     -0.0000283
       1.5766303      6.3734349     -0.0000161
       1.5766303      6.4680696     -0.0000020
       1.5766303      6.5627500      0.0000264
       1.5766303      6.6574746     -0.0000092
       1.5766303      6.7522421      0.0000010
       1.5766303      6.8470513      0.0000175
       1.5766303      6.9419014      0.0000192
       1.5766303      7.0367912     -0.0000032
       1.5766303      7.1317193     -0.0000172
       1.5766303      7.2266821     -0.0000020
       1.5766303      7.3216650     -0.0000058
       1.5766303      7.4165527     -0.0000020
       1.6587320      1.2128761      0.0001068
       1.6587320      1.3147999      0.0005627
       1.6587320      1.4062338      0.0032282
       1.6587320      1.4928203      0.0109053
       1.6587320      1.5766303      0.0248424
       1.6587320      1.6587320      0.0412363
       1.6587320      1.7397800      0.0522210
       1.6587320      1.8202149      0.0520191
       1.6587320      1.9003499      0.0420828
       1.6587320      1.9804146      0.0283781
       1.6587320      2.0605805      0.0161732
       1.6587320      2.1409771      0.0076088
       1.6587320      2.2217027      0.0024700
       1.6587320      2.3028321      0.0000338
       1.6587320      2.3844224     -0.0006853
       1.6587320      2.4665167     -0.0005133
       1.6587320      2.5491467     -0.0001144
       1.6587320      2.6323351      0.0002557
       1.6587320      2.7160969      0.0003570
       1.6587320      2.8004403      0.0002470
       1.6587320      2.8853677      0.0001643
       1.6587320      2.9708763      0.0001294
       1.6587320      3.0569588      0.0000816
       1.6587320      3.1436037      0.0000441
       1.6587320      3.2307962      0.0000472
       1.6587320      3.3185182      0.0000183
       1.6587320      3.4067494      0.0000191
       1.6587320      3.4954676     -0.0000235
       1.6587320      3.5846488     -0.0000116
       1.6587320      3.6742685     -0.0000139
       1.6587320      3.7643013     -0.0000013
       1.6587320      3.8547217      0.0000249
       1.6587320      3.9455043      0.0000236
       1.6587320      4.0366245      0.0000169
       1.6587320      4.1280580     -0.0000087
       1.6587320      4.2197816     -0.0000059
       1.6587320      4.3117732     -0.0000029
       1.6587320      4.4040119      0.0000063
       1.6587320      4.4964778     -0.0000329
       1.6587320      4.5891524      0.0000655
       1.6587320      4.6820186      0.0000452
       1.6587320      4.7750606      0.0000140
       1.6587320      4.8682635      0.0000153
       1.6587320      4.9616140      0.0000273
       1.6587320      5.0550998      0.0000239
       1.6587320      5.1487097     -0.0000076
       1.6587320      5.2424336      0.0000160
       1.6587320      5.3362622      0.0000652
       1.6587320      5.4301872     -0.0000263
       1.6587320      5.5242012     -0.0000222
       1.6587320      5.6182975     -0.0000004
       1.6587320      5.7124701      0.0000121
       1.6587320      5.8067136     -0.0000095
       1.6587320      5.9010234      0.0000050
       1.6587320      5.9953952     -0.0000117
       1.6587320      6.0898253     -0.0000313
       1.6587320      6.1843105     -0.0000063
       1.6587320      6.2788478     -0.0000186
       1.6587320      6.3734349     -0.0000170
       1.6587320      6.4680696     -0.0000136
       1.6587320      6.5627500     -0.0000213
       1.6587320      6.6574746      0.0000054
       1.6587320      6.7522421     -0.0000042
       1.6587320      6.8470513      0.0000377
       1.6587320      6.9419014     -0.0000160
       1.6587320      7.0367912     -0.0000076
       1.6587320      7.1317193     -0.0000080
       1.6587320      7.2266821      0.0000017
       1.6587320      7.3216650      0.0000074
       1.6587320      7.4165527     -0.0000027
       1.7397800      1.2128761      0.0000051
       1.7397800      1.3147999      0.0008118
       1.7397800      1.4062338      0.0046141
       1.7397800      1.4928203      0.0150738
       1.7397800      1.5766303      0.0338672
       1.7397800      1.6587320      0.0560565
       1.7397800      1.7397800      0.0707399
       1.7397800      1.8202149      0.0700410
       1.7397800      1.9003499      0.0559293
       1.7397800      1.9804146      0.0368565
       1.7397800      2.0605805      0.0202646
       1.7397800      2.1409771      0.0091389
       1.7397800      2.2217027      0.0030120
       1.7397800      2.3028321      0.0001860
       1.7397800      2.3844224     -0.0006197
       1.7397800      2.4665167     -0.0005132
       1.7397800      2.5491467     -0.0001477
       1.7397800      2.6323351      0.0003033
       1.7397800      2.7160969      0.0004717
       1.7397800      2.8004403      0.0003807
       1.7397800      2.8853677      0.0002447
       1.7397800      2.9708763      0.0001413
       1.7397800      3.0569588      0.0001152
       1.7397800      3.1436037      0.0000409
       1.7397800      3.2307962      0.0000246
       1.7397800      3.3185182     -0.0000033
       1.7397800      3.4067494     -0.0000290
       1.7397800      3.4954676     -0.0000348
       1.7397800      3.5846488     -0.0000194
       1.7397800      3.6742685     -0.0000372
       1.7397800      3.7643013      0.0000042
       1.7397800      3.8547217      0.0000618
       1.7397800      3.9455043      0.0000465
       1.7397800      4.0366245     -0.0000077
       1.7397800      4.1280580      0.0000434
       1.7397800      4.2197816     -0.0000248
       1.7397800      4.3117732     -0.0000060
       1.7397800      4.4040119      0.0000170
       1.7397800      4.4964778     -0.0000475
       1.7397800      4.5891524      0.0000857
       1.7397800      4.6820186      0.0000616
       1.7397800      4.7750606      0.0000050
       1.7397800      4.8682635      0.0000143
       1.7397800      4.9616140      0.0000173
       1.7397800      5.0550998      0.0000087
       1.7397800      5.1487097      0.0000190
       1.7397800      5.2424336      0.0000262
       1.7397800      5.3362622      0.0000494
       1.7397800      5.4301872     -0.0000398
       1.7397800      5.5242012      0.0000048
       1.7397800      5.6182975     -0.0000011
       1.7397800      5.7124701     -0.0000017
       1.7397800      5.8067136     -0.0000024
       1.7397800      5.9010234      0.0000076
       1.7397800      5.9953952     -0.0000489
       1.7397800      6.0898253     -0.0000417
       1.7397800      6.1843105     -0.0000487
       1.7397800      6.2788478     -0.0000135
       1.7397800      6.3734349     -0.0000431
       1.7397800      6.4680696     -0.0000496
       1.7397800      6.5627500     -0.0000572
       1.7397800      6.6574746      0.0000289
       1.7397800      6.7522421      0.0000191
       1.7397800      6.8470513     -0.0000111
       1.7397800      6.9419014     -0.0000130
       1.7397800      7.0367912     -0.0000383
       1.7397800      7.1317193     -0.0000245
       1.7397800      7.2266821      0.0000051
       1.7397800      7.3216650     -0.0000024
       1.7397800      7.4165527     -0.0000218
       1.8202149      1.2128761      0.0000585
       1.8202149      1.3147999      0.0008402
       1.8202149      1.4062338      0.0050435
       1.8202149      1.4928203      0.0164014
       1.8202149      1.5766303      0.0367682
       1.8202149      1.6587320      0.0606733
       1.8202149      1.7397800      0.0761937
       1.8202149      1.8202149      0.0750096
       1.8202149      1.9003499      0.0594458
       1.8202149      1.9804146      0.0386889
       1.8202149      2.0605805      0.0208644
       1.8202149      2.1409771      0.0093625
       1.8202149      2.2217027      0.0031811
       1.8202149      2.3028321      0.0003961
       1.8202149      2.3844224     -0.0004874
       1.8202149      2.4665167     -0.0004958
       1.8202149      2.5491467     -0.0001692
       1.8202149      2.6323351      0.0002273
       1.8202149      2.7160969      0.0004170
       1.8202149      2.8004403      0.0003868
       1.8202149      2.8853677      0.0002906
       1.8202149      2.9708763      0.0001555
       1.8202149      3.0569588      0.0001020
       1.8202149      3.1436037      0.0000545
       1.8202149      3.2307962      0.0000147
       1.8202149      3.3185182      0.0000145
       1.8202149      3.4067494      0.0000031
       1.8202149      3.4954676     -0.0000287
       1.8202149      3.5846488     -0.0000464
       1.8202149      3.6742685     -0.0000028
       1.8202149      3.7643013      0.0000166
       1.8202149      3.8547217      0.0000303
       1.8202149      3.9455043      0.0000197
       1.8202149      4.0366245     -0.0000326
       1.8202149      4.1280580      0.0000430
       1.8202149      4.2197816     -0.0000187
       1.8202149      4.3117732     -0.0000009
       1.8202149      4.4040119      0.0000241
       1.8202149      4.4964778     -0.0000556
       1.8202149      4.5891524      0.0000659
       1.8202149      4.6820186      0.0000362
       1.8202149      4.7750606      0.0000127
       1.8202149      4.8682635     -0.0000061
       1.8202149      4.9616140     -0.0000185
       1.8202149      5.0550998     -0.0000181
       1.8202149      5.1487097     -0.0000202
       1.8202149      5.2424336      0.0000398
       1.8202149      5.3362622      0.0000509
       1.8202149      5.4301872     -0.0000308
       1.8202149      5.5242012      0.0000024
       1.8202149      5.6182975      0.0000211
       1.8202149      5.7124701      0.0000059
       1.8202149      5.8067136      0.0000015
       1.8202149      5.9010234     -0.0000204
       1.8202149      5.9953952     -0.0000322
       1.8202149      6.0898253     -0.0000500
       1.8202149      6.1843105     -0.0000315
       1.8202149      6.2788478     -0.0000360
       1.8202149      6.3734349     -0.0000377
       1.8202149      6.4680696     -0.0000408
       1.8202149      6.5627500     -0.0000410
       1.8202149      6.6574746      0.0000225
       1.8202149      6.7522421     -0.0000096
       1.8202149      6.8470513     -0.0000064
       1.8202149      6.9419014     -0.0000363
       1.8202149      7.0367912     -0.0000297
       1.8202149      7.1317193      0.0000056
       1.8202149      7.2266821      0.0000260
       1.8202149      7.3216650     -0.0000093
       1.8202149      7.4165527     -0.0000256
       1.9003499      1.2128761     -0.0000213
       1.9003499      1.3147999      0.0007151
       1.9003499      1.4062338      0.0042899
       1.9003499      1.4928203      0.0141286
       1.9003499      1.5766303      0.0319603
       1.9003499      1.6587320      0.0529544
       1.9003499      1.7397800      0.0664994
       1.9003499      1.8202149      0.0653814
       1.9003499      1.9003499      0.0518963
       1.9003499      1.9804146      0.0338768
       1.9003499      2.0605805      0.0184593
       1.9003499      2.1409771      0.0085073
       1.9003499      2.2217027      0.0031502
       1.9003499      2.3028321      0.0005289
       1.9003499      2.3844224     -0.0004080
       1.9003499      2.4665167     -0.0004813
       1.9003499      2.5491467     -0.0001679
       1.9003499      2.6323351      0.0001768
       1.9003499      2.7160969      0.0003304
       1.9003499      2.8004403      0.0003473
       1.9003499      2.8853677      0.0002661
       1.9003499      2.9708763      0.0001701
       1.9003499      3.0569588      0.0001161
       1.9003499      3.1436037      0.0000335
       1.9003499      3.2307962      0.0000384
       1.9003499      3.3185182      0.0000652
       1.9003499      3.4067494      0.0000312
       1.9003499      3.4954676     -0.0000231
       1.9003499      3.5846488     -0.0000537
       1.9003499      3.6742685     -0.0000465
       1.9003499      3.7643013     -0.0000078
       1.9003499      3.8547217      0.0000184
       1.9003499      3.9455043      0.0000021
       1.9003499      4.0366245     -0.0000526
       1.9003499      4.1280580      0.0000380
       1.9003499      4.2197816     -0.0000292
       1.9003499      4.3117732     -0.0000135
       1.9003499      4.4040119      0.0000304
       1.9003499      4.4964778     -0.0000542
       1.9003499      4.5891524      0.0000488
       1.9003499      4.6820186      0.0000237
       1.9003499      4.7750606     -0.0000055
       1.9003499      4.8682635      0.0000010
       1.9003499      4.9616140     -0.0000138
       1.9003499      5.0550998     -0.0000196
       1.9003499      5.1487097     -0.0000121
       1.9003499      5.2424336      0.0000080
       1.9003499      5.3362622      0.0000501
       1.9003499      5.4301872     -0.0000416
       1.9003499      5.5242012      0.0000205
       1.9003499      5.6182975      0.0000070
       1.9003499      5.7124701      0.0000269
       1.9003499      5.8067136      0.0000182
       1.9003499      5.9010234     -0.0000058
       1.9003499      5.9953952     -0.0000304
       1.9003499      6.0898253     -0.0000368
       1.9003499      6.1843105     -0.0000453
       1.9003499      6.2788478     -0.0000409
       1.9003499      6.3734349     -0.0000227
       1.9003499      6.4680696     -0.0000282
       1.9003499      6.5627500     -0.0000176
       1.9003499      6.6574746      0.0000213
       1.9003499      6.7522421     -0.0000058
       1.9003499      6.8470513     -0.0000164
       1.9003499      6.9419014     -0.0000249
       1.9003499      7.0367912     -0.0000199
       1.9003499      7.1317193     -0.0000104
       1.9003499      7.2266821      0.0000115
       1.9003499      7.3216650     -0.0000161
       1.9003499      7.4165527     -0.0000122
       1.9804146      1.2128761      0.0000541
       1.9804146      1.3147999      0.0004932
       1.9804146      1.4062338      0.0029469
       1.9804146      1.4928203      0.0099252
       1.9804146      1.5766303      0.0226764
       1.9804146      1.6587320      0.0379545