 VARIABLES = "R1 /a_0", "R2 /a_0", "v/a.u."
 ZONE I=70, J=70, F=point
       1.2128761      1.2128761     -0.0000478
       1.2128761      1.3147999     -0.0001645
       1.2128761      1.4062338     -0.0000244
       1.2128761      1.4928203      0.0000561
       1.2128761      1.5766303      0.0000805
       1.2128761      1.6587320     -0.0000225
       1.2128761      1.7397800      0.0000058
       1.2128761      1.8202149     -0.0000171
       1.2128761      1.9003499     -0.0000192
       1.2128761      1.9804146      0.0000140
       1.2128761      2.0605805     -0.0000580
       1.2128761      2.1409771     -0.0000299
       1.2128761      2.2217027     -0.0000644
       1.2128761      2.3028321      0.0000036
       1.2128761      2.3844224     -0.0000370
       1.2128761      2.4665167      0.0000420
       1.2128761      2.5491467     -0.0000147
       1.2128761      2.6323351     -0.0000272
       1.2128761      2.7160969     -0.0000087
       1.2128761      2.8004403      0.0000305
       1.2128761      2.8853677     -0.0000085
       1.2128761      2.9708763     -0.0000332
       1.2128761      3.0569588      0.0000230
       1.2128761      3.1436037     -0.0000323
       1.2128761      3.2307962      0.0000563
       1.2128761      3.3185182      0.0000142
       1.2128761      3.4067494     -0.0000200
       1.2128761      3.4954676     -0.0000076
       1.2128761      3.5846488      0.0000100
       1.2128761      3.6742685      0.0000088
       1.2128761      3.7643013      0.0000052
       1.2128761      3.8547217     -0.0000001
       1.2128761      3.9455043      0.0000161
       1.2128761      4.0366245     -0.0000343
       1.2128761      4.1280580     -0.0000012
       1.2128761      4.2197816     -0.0000074
       1.2128761      4.3117732      0.0000013
       1.2128761      4.4040119     -0.0000028
       1.2128761      4.4964778     -0.0000167
       1.2128761      4.5891524      0.0000071
       1.2128761      4.6820186      0.0000027
       1.2128761      4.7750606      0.0000470
       1.2128761      4.8682635     -0.0000311
       1.2128761      4.9616140     -0.0000087
       1.2128761      5.0550998      0.0000264
       1.2128761      5.1487097      0.0000173
       1.2128761      5.2424336     -0.0000295
       1.2128761      5.3362622     -0.0000178
       1.2128761      5.4301872      0.0000234
       1.2128761      5.5242012     -0.0000221
       1.2128761      5.6182975      0.0000305
       1.2128761      5.7124701     -0.0000073
       1.2128761      5.8067136      0.0000381
       1.2128761      5.9010234      0.0000268
       1.2128761      5.9953952     -0.0000042
       1.2128761      6.0898253     -0.0000312
       1.2128761      6.1843105     -0.0000390
       1.2128761      6.2788478      0.0000378
       1.2128761      6.3734349      0.0000282
       1.2128761      6.4680696      0.0000289
       1.2128761      6.5627500      0.0000200
       1.2128761      6.6574746      0.0000406
       1.2128761      6.7522421      0.0000144
       1.2128761      6.8470513      0.0000281
       1.2128761      6.9419014     -0.0000081
       1.2128761      7.0367912      0.0000033
       1.2128761      7.1317193      0.0000189
       1.2128761      7.2266821     -0.0000073
       1.2128761      7.3216650     -0.0000254
       1.2128761      7.4165527      0.0000252
       1.3147999      1.2128761      0.0000562
       1.3147999      1.3147999      0.0001038
       1.3147999      1.4062338     -0.0000516
       1.3147999      1.4928203      0.0000167
       1.3147999      1.5766303     -0.0000518
       1.3147999      1.6587320     -0.0000228
       1.3147999      1.7397800     -0.0000636
       1.3147999      1.8202149     -0.0000657
       1.3147999      1.9003499     -0.0000686
       1.3147999      1.9804146     -0.0001361
       1.3147999      2.0605805     -0.0001297
       1.3147999      2.1409771     -0.0001657
       1.3147999      2.2217027     -0.0000931
       1.3147999      2.3028321     -0.0000316
       1.3147999      2.3844224      0.0000006
       1.3147999      2.4665167     -0.0000729
       1.3147999      2.5491467     -0.0000250
       1.3147999      2.6323351     -0.0000478
       1.3147999      2.7160969      0.0000353
       1.3147999      2.8004403      0.0000094
       1.3147999      2.8853677     -0.0000154
       1.3147999      2.9708763     -0.0000084
       1.3147999      3.0569588      0.0000001
       1.3147999      3.1436037     -0.0000115
       1.3147999      3.2307962     -0.0000147
       1.3147999      3.3185182     -0.0000257
       1.3147999      3.4067494     -0.0000142
       1.3147999      3.4954676     -0.0000037
       1.3147999      3.5846488      0.0000056
       1.3147999      3.6742685     -0.0000001
       1.3147999      3.7643013     -0.0000394
       1.3147999      3.8547217     -0.0000019
       1.3147999      3.9455043     -0.0000288
       1.3147999      4.0366245     -0.0000122
       1.3147999      4.1280580     -0.0000046
       1.3147999      4.2197816      0.0000072
       1.3147999      4.3117732     -0.0000107
       1.3147999      4.4040119      0.0000055
       1.3147999      4.4964778     -0.0000189
       1.3147999      4.5891524      0.0000158
       1.3147999      4.6820186      0.0000177
       1.3147999      4.7750606     -0.0000073
       1.3147999      4.8682635     -0.0000118
       1.3147999      4.9616140      0.0000288
       1.3147999      5.0550998      0.0000036
       1.3147999      5.1487097      0.0000268
       1.3147999      5.2424336     -0.0000074
       1.3147999      5.3362622      0.0000102
       1.3147999      5.4301872     -0.0000209
       1.3147999      5.5242012      0.0000076
       1.3147999      5.6182975     -0.0000084
       1.3147999      5.7124701      0.0000115
       1.3147999      5.8067136     -0.0000121
       1.3147999      5.9010234      0.0000217
       1.3147999      5.9953952     -0.0000145
       1.3147999      6.0898253     -0.0000416
       1.3147999      6.1843105      0.0000410
       1.3147999      6.2788478     -0.0000010
       1.3147999      6.3734349      0.0000079
       1.3147999      6.4680696     -0.0000370
       1.3147999      6.5627500      0.0000037
       1.3147999      6.6574746      0.0000309
       1.3147999      6.7522421     -0.0000079
       1.3147999      6.8470513     -0.0000086
       1.3147999      6.9419014      0.0000264
       1.3147999      7.0367912     -0.0000024
       1.3147999      7.1317193      0.0000448
       1.3147999      7.2266821     -0.0000150
       1.3147999      7.3216650      0.0000131
       1.3147999      7.4165527      0.0000002
       1.4062338      1.2128761     -0.0001508
       1.4062338      1.3147999      0.0000352
       1.4062338      1.4062338      0.0000147
       1.4062338      1.4928203     -0.0000214
       1.4062338      1.5766303     -0.0000216
       1.4062338      1.6587320     -0.0000806
       1.4062338      1.7397800     -0.0001948
       1.4062338      1.8202149     -0.0003442
       1.4062338      1.9003499     -0.0004553
       1.4062338      1.9804146     -0.0004618
       1.4062338      2.0605805     -0.0005131
       1.4062338      2.1409771     -0.0003836
       1.4062338      2.2217027     -0.0002012
       1.4062338      2.3028321     -0.0000678
       1.4062338      2.3844224      0.0000245
       1.4062338      2.4665167     -0.0000314
       1.4062338      2.5491467     -0.0000554
       1.4062338      2.6323351     -0.0000658
       1.4062338      2.7160969     -0.0000168
       1.4062338      2.8004403      0.0000218
       1.4062338      2.8853677     -0.0000139
       1.4062338      2.9708763     -0.0000010
       1.4062338      3.0569588     -0.0000215
       1.4062338      3.1436037      0.0000048
       1.4062338      3.2307962     -0.0000538
       1.4062338      3.3185182      0.0000098
       1.4062338      3.4067494     -0.0000176
       1.4062338      3.4954676      0.0000101
       1.4062338      3.5846488     -0.0000223
       1.4062338      3.6742685     -0.0000381
       1.4062338      3.7643013     -0.0000111
       1.4062338      3.8547217      0.0000103
       1.4062338      3.9455043     -0.0000147
       1.4062338      4.0366245      0.0000088
       1.4062338      4.1280580      0.0000189
       1.4062338      4.2197816     -0.0000088
       1.4062338      4.3117732     -0.0000011
       1.4062338      4.4040119     -0.0000195
       1.4062338      4.4964778     -0.0000034
       1.4062338      4.5891524     -0.0000070
       1.4062338      4.6820186      0.0000058
       1.4062338      4.7750606     -0.0000019
       1.4062338      4.8682635      0.0000306
       1.4062338      4.9616140      0.0000007
       1.4062338      5.0550998     -0.0000033
       1.4062338      5.1487097      0.0000011
       1.4062338      5.2424336      0.0000162
       1.4062338      5.3362622     -0.0000029
       1.4062338      5.4301872      0.0000001
       1.4062338      5.5242012      0.0000011
       1.4062338      5.6182975     -0.0000076
       1.4062338      5.7124701     -0.0000228
       1.4062338      5.8067136     -0.0000016
       1.4062338      5.9010234      0.0000072
       1.4062338      5.9953952     -0.0000127
       1.4062338      6.0898253      0.0000005
       1.4062338      6.1843105      0.0000045
       1.4062338      6.2788478      0.0000155
       1.4062338      6.3734349     -0.0000178
       1.4062338      6.4680696      0.0000093
       1.4062338      6.5627500     -0.0000256
       1.4062338      6.6574746      0.0000031
       1.4062338      6.7522421      0.0000048
       1.4062338      6.8470513      0.0000073
       1.4062338      6.9419014      0.0000383
       1.4062338      7.0367912      0.0000116
       1.4062338      7.1317193     -0.0000224
       1.4062338      7.2266821      0.0000026
       1.4062338      7.3216650      0.0000021
       1.4062338      7.4165527     -0.0000226
       1.4928203      1.2128761      0.0000939
       1.4928203      1.3147999     -0.0000123
       1.4928203      1.4062338     -0.0000063
       1.4928203      1.4928203      0.0000646
       1.4928203      1.5766303      0.0001394
       1.4928203      1.6587320      0.0001069
       1.4928203      1.7397800     -0.0002194
       1.4928203      1.8202149     -0.0007499
       1.4928203      1.9003499     -0.0011595
       1.4928203      1.9804146     -0.0013119
       1.4928203      2.0605805     -0.0012282
       1.4928203      2.1409771     -0.0009502
       1.4928203      2.2217027     -0.0004657
       1.4928203      2.3028321     -0.0000951
       1.4928203      2.3844224      0.0000852
       1.4928203      2.4665167      0.0000539
       1.4928203      2.5491467     -0.0000871
       1.4928203      2.6323351     -0.0001214
       1.4928203      2.7160969     -0.0000944
       1.4928203      2.8004403     -0.0000269
       1.4928203      2.8853677     -0.0000274
       1.4928203      2.9708763      0.0000046
       1.4928203      3.0569588     -0.0000460
       1.4928203      3.1436037     -0.0000319
       1.4928203      3.2307962     -0.0000076
       1.4928203      3.3185182      0.0000016
       1.4928203      3.4067494     -0.0000004
       1.4928203      3.4954676     -0.0000427
       1.4928203      3.5846488      0.0000112
       1.4928203      3.6742685     -0.0000671
       1.4928203      3.7643013     -0.0000322
       1.4928203      3.8547217      0.0000039
       1.4928203      3.9455043     -0.0000041
       1.4928203      4.0366245      0.0000182
       1.4928203      4.1280580      0.0000000
       1.4928203      4.2197816      0.0000074
       1.4928203      4.3117732      0.0000018
       1.4928203      4.4040119     -0.0000115
       1.4928203      4.4964778     -0.0000129
       1.4928203      4.5891524     -0.0000131
       1.4928203      4.6820186     -0.0000188
       1.4928203      4.7750606     -0.0000243
       1.4928203      4.8682635     -0.0000015
       1.4928203      4.9616140     -0.0000012
       1.4928203      5.0550998      0.0000106
       1.4928203      5.1487097      0.0000160
       1.4928203      5.2424336     -0.0000015
       1.4928203      5.3362622      0.0000222
       1.4928203      5.4301872      0.0000087
       1.4928203      5.5242012     -0.0000433
       1.4928203      5.6182975     -0.0000123
       1.4928203      5.7124701      0.0000060
       1.4928203      5.8067136      0.0000274
       1.4928203      5.9010234      0.0000053
       1.4928203      5.9953952     -0.0000017
       1.4928203      6.0898253      0.0000159
       1.4928203      6.1843105      0.0000331
       1.4928203      6.2788478     -0.0000006
       1.4928203      6.3734349     -0.0000168
       1.4928203      6.4680696      0.0000015
       1.4928203      6.5627500      0.0000133
       1.4928203      6.6574746      0.0000428
       1.4928203      6.7522421      0.0000322
       1.4928203      6.8470513      0.0000270
       1.4928203      6.9419014      0.0000332
       1.4928203      7.0367912      0.0000331
       1.4928203      7.1317193     -0.0000189
       1.4928203      7.2266821      0.0000343
       1.4928203      7.3216650     -0.0000022
       1.4928203      7.4165527      0.0000041
       1.5766303      1.2128761      0.0000721
       1.5766303      1.3147999     -0.0000142
       1.5766303      1.4062338      0.0001323
       1.5766303      1.4928203      0.0004537
       1.5766303      1.5766303      0.0008599
       1.5766303      1.6587320      0.0008943
       1.5766303      1.7397800      0.0002685
       1.5766303      1.8202149     -0.0008504
       1.5766303      1.9003499     -0.0017496
       1.5766303      1.9804146     -0.0021368
       1.5766303      2.0605805     -0.0021348
       1.5766303      2.1409771     -0.0016596
       1.5766303      2.2217027     -0.0009590
       1.5766303      2.3028321     -0.0003395
       1.5766303      2.3844224     -0.0000154
       1.5766303      2.4665167      0.0000438
       1.5766303      2.5491467     -0.0000929
       1.5766303      2.6323351     -0.0002294
       1.5766303      2.7160969     -0.0002033
       1.5766303      2.8004403     -0.0001274
       1.5766303      2.8853677     -0.0000290
       1.5766303      2.9708763     -0.0000559
       1.5766303      3.0569588     -0.0000763
       1.5766303      3.1436037     -0.0000396
       1.5766303      3.2307962      0.0000036
       1.5766303      3.3185182     -0.0000226
       1.5766303      3.4067494      0.0000162
       1.5766303      3.4954676     -0.0000018
       1.5766303      3.5846488     -0.0000185
       1.5766303      3.6742685      0.0000110
       1.5766303      3.7643013      0.0000188
       1.5766303      3.8547217     -0.0000002
       1.5766303      3.9455043      0.0000145
       1.5766303      4.0366245     -0.0000118
       1.5766303      4.1280580     -0.0000338
       1.5766303      4.2197816     -0.0000332
       1.5766303      4.3117732      0.0000019
       1.5766303      4.4040119     -0.0000147
       1.5766303      4.4964778      0.0000133
       1.5766303      4.5891524     -0.0000285
       1.5766303      4.6820186     -0.0000123
       1.5766303      4.7750606     -0.0000016
       1.5766303      4.8682635     -0.0000198
       1.5766303      4.9616140      0.0000110
       1.5766303      5.0550998     -0.0000079
       1.5766303      5.1487097      0.0000218
       1.5766303      5.2424336     -0.0000069
       1.5766303      5.3362622     -0.0000042
       1.5766303      5.4301872      0.0000202
       1.5766303      5.5242012      0.0000226
       1.5766303      5.6182975     -0.0000087
       1.5766303      5.7124701     -0.0000054
       1.5766303      5.8067136     -0.0000056
       1.5766303      5.9010234     -0.0000131
       1.5766303      5.9953952      0.0000010
       1.5766303      6.0898253      0.0000100
       1.5766303      6.1843105      0.0000213
       1.5766303      6.2788478      0.0000232
       1.5766303      6.3734349     -0.0000194
       1.5766303      6.4680696      0.0000231
       1.5766303      6.5627500      0.0000004
       1.5766303      6.6574746     -0.0000061
       1.5766303      6.7522421      0.0000097
       1.5766303      6.8470513      0.0000255
       1.5766303      6.9419014      0.0000237
       1.5766303      7.0367912     -0.0000013
       1.5766303      7.1317193      0.0000459
       1.5766303      7.2266821      0.0000082
       1.5766303      7.3216650      0.0000246
       1.5766303      7.4165527     -0.0000096
       1.6587320      1.2128761     -0.0000046
       1.6587320      1.3147999      0.0000202
       1.6587320      1.4062338      0.0002420
       1.6587320      1.4928203      0.0011673
       1.6587320      1.5766303      0.0024000
       1.6587320      1.6587320      0.0029911
       1.6587320      1.7397800      0.0021150
       1.6587320      1.8202149      0.0003705
       1.6587320      1.9003499     -0.0012417
       1.6587320      1.9804146     -0.0021780
       1.6587320      2.0605805     -0.0024381
       1.6587320      2.1409771     -0.0021173
       1.6587320      2.2217027     -0.0014368
       1.6587320      2.3028321     -0.0007616
       1.6587320      2.3844224     -0.0003067
       1.6587320      2.4665167     -0.0001356
       1.6587320      2.5491467     -0.0002162
       1.6587320      2.6323351     -0.0002895
       1.6587320      2.7160969     -0.0003091
       1.6587320      2.8004403     -0.0002062
       1.6587320      2.8853677     -0.0001261
       1.6587320      2.9708763     -0.0001321
       1.6587320      3.0569588     -0.0000784
       1.6587320      3.1436037     -0.0000179
       1.6587320      3.2307962     -0.0000038
       1.6587320      3.3185182     -0.0000210
       1.6587320      3.4067494      0.0000224
       1.6587320      3.4954676     -0.0000195
       1.6587320      3.5846488      0.0000037
       1.6587320      3.6742685     -0.0000017
       1.6587320      3.7643013      0.0000130
       1.6587320      3.8547217     -0.0000161
       1.6587320      3.9455043      0.0000002
       1.6587320      4.0366245      0.0000220
       1.6587320      4.1280580     -0.0000313
       1.6587320      4.2197816      0.0000320
       1.6587320      4.3117732     -0.0000210
       1.6587320      4.4040119     -0.0000106
       1.6587320      4.4964778      0.0000411
       1.6587320      4.5891524     -0.0000238
       1.6587320      4.6820186     -0.0000107
       1.6587320      4.7750606      0.0000028
       1.6587320      4.8682635      0.0000045
       1.6587320      4.9616140      0.0000147
       1.6587320      5.0550998     -0.0000053
       1.6587320      5.1487097      0.0000086
       1.6587320      5.2424336     -0.0000071
       1.6587320      5.3362622      0.0000114
       1.6587320      5.4301872      0.0000003
       1.6587320      5.5242012     -0.0000156
       1.6587320      5.6182975      0.0000148
       1.6587320      5.7124701      0.0000189
       1.6587320      5.8067136     -0.0000010
       1.6587320      5.9010234     -0.0000164
       1.6587320      5.9953952     -0.0000108
       1.6587320      6.0898253      0.0000036
       1.6587320      6.1843105      0.0000223
       1.6587320      6.2788478      0.0000272
       1.6587320      6.3734349      0.0000020
       1.6587320      6.4680696      0.0000020
       1.6587320      6.5627500      0.0000332
       1.6587320      6.6574746     -0.0000103
       1.6587320      6.7522421      0.0000020
       1.6587320      6.8470513      0.0000078
       1.6587320      6.9419014      0.0000359
       1.6587320      7.0367912      0.0000223
       1.6587320      7.1317193      0.0000134
       1.6587320      7.2266821      0.0000205
       1.6587320      7.3216650      0.0000076
       1.6587320      7.4165527      0.0000093
       1.7397800      1.2128761      0.0000074
       1.7397800      1.3147999      0.0000863
       1.7397800      1.4062338      0.0004306
       1.7397800      1.4928203      0.0019886
       1.7397800      1.5766303      0.0043552
       1.7397800      1.6587320      0.0058614
       1.7397800      1.7397800      0.0053537
       1.7397800      1.8202149      0.0032364
       1.7397800      1.9003499      0.0009326
       1.7397800      1.9804146     -0.0006231
       1.7397800      2.0605805     -0.0014455
       1.7397800      2.1409771     -0.0017230
       1.7397800      2.2217027     -0.0015140
       1.7397800      2.3028321     -0.0010723
       1.7397800      2.3844224     -0.0006007
       1.7397800      2.4665167     -0.0002996
       1.7397800      2.5491467     -0.0002480
       1.7397800      2.6323351     -0.0003267
       1.7397800      2.7160969     -0.0003283
       1.7397800      2.8004403     -0.0002904
       1.7397800      2.8853677     -0.0001943
       1.7397800      2.9708763     -0.0001405
       1.7397800      3.0569588     -0.0001026
       1.7397800      3.1436037     -0.0000090
       1.7397800      3.2307962      0.0000210
       1.7397800      3.3185182     -0.0000084
       1.7397800      3.4067494     -0.0000054
       1.7397800      3.4954676     -0.0000040
       1.7397800      3.5846488      0.0000242
       1.7397800      3.6742685      0.0000162
       1.7397800      3.7643013     -0.0000125
       1.7397800      3.8547217     -0.0000451
       1.7397800      3.9455043      0.0000291
       1.7397800      4.0366245     -0.0000037
       1.7397800      4.1280580      0.0000005
       1.7397800      4.2197816      0.0000088
       1.7397800      4.3117732     -0.0000106
       1.7397800      4.4040119      0.0000043
       1.7397800      4.4964778      0.0000389
       1.7397800      4.5891524     -0.0000393
       1.7397800      4.6820186     -0.0000228
       1.7397800      4.7750606     -0.0000136
       1.7397800      4.8682635     -0.0000194
       1.7397800      4.9616140     -0.0000295
       1.7397800      5.0550998      0.0000159
       1.7397800      5.1487097     -0.0000003
       1.7397800      5.2424336     -0.0000170
       1.7397800      5.3362622     -0.0000137
       1.7397800      5.4301872     -0.0000067
       1.7397800      5.5242012     -0.0000125
       1.7397800      5.6182975     -0.0000100
       1.7397800      5.7124701      0.0000207
       1.7397800      5.8067136      0.0000016
       1.7397800      5.9010234     -0.0000009
       1.7397800      5.9953952     -0.0000205
       1.7397800      6.0898253      0.0000243
       1.7397800      6.1843105      0.0000255
       1.7397800      6.2788478      0.0000355
       1.7397800      6.3734349      0.0000091
       1.7397800      6.4680696      0.0000140
       1.7397800      6.5627500      0.0000243
       1.7397800      6.6574746     -0.0000135
       1.7397800      6.7522421     -0.0000018
       1.7397800      6.8470513      0.0000165
       1.7397800      6.9419014      0.0000111
       1.7397800      7.0367912      0.0000398
       1.7397800      7.1317193      0.0000019
       1.7397800      7.2266821      0.0000109
       1.7397800      7.3216650      0.0000250
       1.7397800      7.4165527      0.0000017
       1.8202149      1.2128761      0.0001335
       1.8202149      1.3147999      0.0000549
       1.8202149      1.4062338      0.0006262
       1.8202149      1.4928203      0.0025475
       1.8202149      1.5766303      0.0057262
       1.8202149      1.6587320      0.0082108
       1.8202149      1.7397800      0.0083796
       1.8202149      1.8202149      0.0065376
       1.8202149      1.9003499      0.0039317
       1.8202149      1.9804146      0.0016807
       1.8202149      2.0605805      0.0001691
       1.8202149      2.1409771     -0.0008415
       1.8202149      2.2217027     -0.0012329
       1.8202149      2.3028321     -0.0010281
       1.8202149      2.3844224     -0.0006048
       1.8202149      2.4665167     -0.0002672
       1.8202149      2.5491467     -0.0001651
       1.8202149      2.6323351     -0.0002527
       1.8202149      2.7160969     -0.0002990
       1.8202149      2.8004403     -0.0002855
       1.8202149      2.8853677     -0.0002285
       1.8202149      2.9708763     -0.0001493
       1.8202149      3.0569588     -0.0000809
       1.8202149      3.1436037     -0.0000193
       1.8202149      3.2307962      0.0000128
       1.8202149      3.3185182     -0.0000268
       1.8202149      3.4067494     -0.0000204
       1.8202149      3.4954676      0.0000030
       1.8202149      3.5846488      0.0000256
       1.8202149      3.6742685      0.0000214
       1.8202149      3.7643013     -0.0000231
       1.8202149      3.8547217     -0.0000113
       1.8202149      3.9455043     -0.0000154
       1.8202149      4.0366245      0.0000089
       1.8202149      4.1280580     -0.0000453
       1.8202149      4.2197816      0.0000119
       1.8202149      4.3117732      0.0000140
       1.8202149      4.4040119     -0.0000174
       1.8202149      4.4964778      0.0000404
       1.8202149      4.5891524     -0.0000503
       1.8202149      4.6820186     -0.0000345
       1.8202149      4.7750606     -0.0000154
       1.8202149      4.8682635     -0.0000168
       1.8202149      4.9616140      0.0000048
       1.8202149      5.0550998     -0.0000014
       1.8202149      5.1487097      0.0000073
       1.8202149      5.2424336     -0.0000062
       1.8202149      5.3362622     -0.0000180
       1.8202149      5.4301872     -0.0000019
       1.8202149      5.5242012      0.0000004
       1.8202149      5.6182975     -0.0000108
       1.8202149      5.7124701     -0.0000112
       1.8202149      5.8067136     -0.0000210
       1.8202149      5.9010234      0.0000073
       1.8202149      5.9953952     -0.0000060
       1.8202149      6.0898253     -0.0000135
       1.8202149      6.1843105      0.0000120
       1.8202149      6.2788478      0.0000228
       1.8202149      6.3734349      0.0000320
       1.8202149      6.4680696      0.0000281
       1.8202149      6.5627500      0.0000010
       1.8202149      6.6574746      0.0000065
       1.8202149      6.7522421      0.0000165
       1.8202149      6.8470513      0.0000006
       1.8202149      6.9419014      0.0000125
       1.8202149      7.0367912      0.0000312
       1.8202149      7.1317193      0.0000290
       1.8202149      7.2266821     -0.0000201
       1.8202149      7.3216650      0.0000192
       1.8202149      7.4165527      0.0000143
       1.9003499      1.2128761      0.0000735
       1.9003499      1.3147999      0.0001204
       1.9003499      1.4062338      0.0007420
       1.9003499      1.4928203      0.0027602
       1.9003499      1.5766303      0.0060509
       1.9003499      1.6587320      0.0089858
       1.9003499      1.7397800      0.0099085
       1.9003499      1.8202149      0.0085964
       1.9003499      1.9003499      0.0058924
       1.9003499      1.9804146      0.0032080
       1.9003499      2.0605805      0.0012801
       1.9003499      2.1409771     -0.0002186
       1.9003499      2.2217027     -0.0008251
       1.9003499      2.3028321     -0.0007309
       1.9003499      2.3844224     -0.0003934
       1.9003499      2.4665167     -0.0000983
       1.9003499      2.5491467     -0.0000396
       1.9003499      2.6323351     -0.0001390
       1.9003499      2.7160969     -0.0002715
       1.9003499      2.8004403     -0.0002825
       1.9003499      2.8853677     -0.0002340
       1.9003499      2.9708763     -0.0001409
       1.9003499      3.0569588     -0.0000576
       1.9003499      3.1436037     -0.0000198
       1.9003499      3.2307962     -0.0000353
       1.9003499      3.3185182     -0.0000532
       1.9003499      3.4067494     -0.0000383
       1.9003499      3.4954676      0.0000221
       1.9003499      3.5846488      0.0000373
       1.9003499      3.6742685      0.0000225
       1.9003499      3.7643013     -0.0000129
       1.9003499      3.8547217     -0.0000249
       1.9003499      3.9455043     -0.0000016
       1.9003499      4.0366245      0.0000029
       1.9003499      4.1280580     -0.0000422
       1.9003499      4.2197816      0.0000054
       1.9003499      4.3117732      0.0000013
       1.9003499      4.4040119     -0.0000300
       1.9003499      4.4964778      0.0000527
       1.9003499      4.5891524     -0.0000369
       1.9003499      4.6820186     -0.0000477
       1.9003499      4.7750606     -0.0000156
       1.9003499      4.8682635     -0.0000112
       1.9003499      4.9616140     -0.0000031
       1.9003499      5.0550998      0.0000098
       1.9003499      5.1487097     -0.0000060
       1.9003499      5.2424336     -0.0000096
       1.9003499      5.3362622      0.0000120
       1.9003499      5.4301872      0.0000213
       1.9003499      5.5242012     -0.0000026
       1.9003499      5.6182975     -0.0000113
       1.9003499      5.7124701      0.0000043
       1.9003499      5.8067136      0.0000097
       1.9003499      5.9010234      0.0000104
       1.9003499      5.9953952      0.0000085
       1.9003499      6.0898253      0.0000248
       1.9003499      6.1843105      0.0000364
       1.9003499      6.2788478      0.0000329
       1.9003499      6.3734349      0.0000512
       1.9003499      6.4680696      0.0000203
       1.9003499      6.5627500      0.0000353
       1.9003499      6.6574746      0.0000154
       1.9003499      6.7522421      0.0000132
       1.9003499      6.8470513      0.0000270
       1.9003499      6.9419014     -0.0000075
       1.9003499      7.0367912      0.0000142
       1.9003499      7.1317193     -0.0000035
       1.9003499      7.2266821     -0.0000010
       1.9003499      7.3216650      0.0000051
       1.9003499      7.4165527      0.0000199
       1.9804146      1.2128761      0.0000108
       1.9804146      1.3147999      0.0001242
       1.9804146      1.4062338      0.0006439
       1.9804146      1.4928203      0.0023332
       1.9804146      1.5766303      0.0052571
       1.9804146      1.6587320      0.0079769