 VARIABLES = "Q1/bohr", "Q3/bohr", "w"   
 ZONE I=5, J=5, F=point
 -0.49534800956880437      -0.34049789319947821       3.32105639183363846E-002
 -0.49534800956880437      -0.16252025079595880      -2.98881936467287924E-002
 -0.49534800956880437       5.56488019937129343E-007  2.96565203484381971E-002
 -0.49534800956880437       0.16252136271517631       6.00631924040148021E-002
 -0.49534800956880437       0.34049900166834984       7.76165612236528156E-003
 -0.28176010254244771      -0.34049789319947821       3.59600136132965029E-002
 -0.28176010254244771      -0.16252025079595880       0.23745655513749864     
 -0.28176010254244771       5.56488019937129343E-007  0.14017204541309830     
 -0.28176010254244771       0.16252136271517631       8.13820096736968396E-002
 -0.28176010254244771       0.34049900166834984      -1.76517121437847063E-002
 -9.93442430289176448E-002 -0.34049789319947821       1.61642848913725878E-002
 -9.93442430289176448E-002 -0.16252025079595880       0.35986200128411161     
 -9.93442430289176448E-002  5.56488019937129343E-007  0.40857515238338610     
 -9.93442430289176448E-002  0.16252136271517631       0.31450212672075645     
 -9.93442430289176448E-002  0.34049900166834984       0.15577080552461067     
  7.38048499702545768E-002 -0.34049789319947821      -1.81261186609113882E-002
  7.38048499702545768E-002 -0.16252025079595880       0.28099677848886900     
  7.38048499702545768E-002  5.56488019937129343E-007  0.44796222058166557     
  7.38048499702545768E-002  0.16252136271517631       0.35445632456114939     
  7.38048499702545768E-002  0.34049900166834984       0.10397595167829898     
  0.25534269988242320      -0.34049789319947821       7.45941014809659991E-002
  0.25534269988242320      -0.16252025079595880       2.39842298686259829E-002
  0.25534269988242320       5.56488019937129343E-007  0.17405931028148169     
  0.25534269988242320       0.16252136271517631       0.16360834194105461     
  0.25534269988242320       0.34049900166834984       9.85448700753282919E-002
