 VARIABLES = "Q1/bohr", "Q3/bohr", "w"   
 ZONE I=5, J=5, F=point
 -0.49534800956880437      -0.34049789319947821      -4.79779714988753381E-002
 -0.49534800956880437      -0.16252025079595880      -0.10303843226812104     
 -0.49534800956880437       5.56488019937129343E-007 -0.13250518356420524     
 -0.49534800956880437       0.16252136271517631      -0.10303842157823269     
 -0.49534800956880437       0.34049900166834984      -4.79779622024302174E-002
 -0.28176010254244771      -0.34049789319947821      -0.13073514913134043     
 -0.28176010254244771      -0.16252025079595880      -0.32051357297068939     
 -0.28176010254244771       5.56488019937129343E-007 -0.42715159056763979     
 -0.28176010254244771       0.16252136271517631      -0.32051351699591768     
 -0.28176010254244771       0.34049900166834984      -0.13073510945066308     
 -9.93442430289176448E-002 -0.34049789319947821      -7.02735756369116948E-002
 -9.93442430289176448E-002 -0.16252025079595880      -0.13981418838896387     
 -9.93442430289176448E-002  5.56488019937129343E-007 -0.16487499415779380     
 -9.93442430289176448E-002  0.16252136271517631      -0.13981406361016852     
 -9.93442430289176448E-002  0.34049900166834984      -7.02735053324106129E-002
  7.38048499702545768E-002 -0.34049789319947821       3.80632435981592201E-002
  7.38048499702545768E-002 -0.16252025079595880       0.25002849475363748     
  7.38048499702545768E-002  5.56488019937129343E-007  0.42319306935812834     
  7.38048499702545768E-002  0.16252136271517631       0.25002862279184879     
  7.38048499702545768E-002  0.34049900166834984       3.80633001526109876E-002
  0.25534269988242320      -0.34049789319947821       2.44820056390790547E-002
  0.25534269988242320      -0.16252025079595880       0.17108374201843332     
  0.25534269988242320       5.56488019937129343E-007  0.30264167790098917     
  0.25534269988242320       0.16252136271517631       0.17108378806471161     
  0.25534269988242320       0.34049900166834984       2.44820199604261247E-002
