 VARIABLES = "Q1/bohr", "Q3/bohr", "w"   
 ZONE I=5, J=5, F=point
 -0.49534800956880437      -0.34049789319947821      -3.85150282411452494E-002
 -0.49534800956880437      -0.16252025079595880      -4.58660197920273890E-002
 -0.49534800956880437       5.56488019937129343E-007  2.89762368985536733E-008
 -0.49534800956880437       0.16252136271517631       4.58660669518752839E-002
 -0.49534800956880437       0.34049900166834984       3.85150526290300790E-002
 -0.28176010254244771      -0.34049789319947821      -0.17533119743808726     
 -0.28176010254244771      -0.16252025079595880      -0.24823469368691872     
 -0.28176010254244771       5.56488019937129343E-007  4.09301394558555343E-008
 -0.28176010254244771       0.16252136271517631       0.24823476890645060     
 -0.28176010254244771       0.34049900166834984       0.17533123899500422     
 -9.93442430289176448E-002 -0.34049789319947821      -0.26123650163737916     
 -9.93442430289176448E-002 -0.16252025079595880      -0.44631208336567868     
 -9.93442430289176448E-002  5.56488019937129343E-007 -4.06822810418449862E-009
 -9.93442430289176448E-002  0.16252136271517631       0.44631211971496004     
 -9.93442430289176448E-002  0.34049900166834984       0.26123654312287048     
  7.38048499702545768E-002 -0.34049789319947821      -0.15237002423151974     
  7.38048499702545768E-002 -0.16252025079595880      -0.32574296082715759     
  7.38048499702545768E-002  5.56488019937129343E-007 -9.13813993735364022E-008
  7.38048499702545768E-002  0.16252136271517631       0.32574288370831239     
  7.38048499702545768E-002  0.34049900166834984       0.15237002904870070     
  0.25534269988242320      -0.34049789319947821      -2.74478424005241660E-002
  0.25534269988242320      -0.16252025079595880      -8.08326142016021904E-002
  0.25534269988242320       5.56488019937129343E-007 -6.02942975762544101E-008
  0.25534269988242320       0.16252136271517631       8.08325566837482246E-002
  0.25534269988242320       0.34049900166834984       2.74478375993060485E-002
